
     Program PWSCF v.6.8 starts on 12Mar2025 at  2:50:19 

     This program is part of the open-source Quantum ESPRESSO suite
     for quantum simulation of materials; please cite
         "P. Giannozzi et al., J. Phys.:Condens. Matter 21 395502 (2009);
         "P. Giannozzi et al., J. Phys.:Condens. Matter 29 465901 (2017);
         "P. Giannozzi et al., J. Chem. Phys. 152 154105 (2020);
          URL http://www.quantum-espresso.org", 
     in publications or presentations arising from this work. More details at
     http://www.quantum-espresso.org/quote

     Parallel version (MPI & OpenMP), running on       2 processor cores
     Number of MPI processes:                 1
     Threads/MPI process:                     2

     MPI processes distributed on     1 nodes
     9972 MiB available memory on the printing compute node when the environment starts
 
     Reading input from pt/pwscf.in

     Current dimensions of program PWSCF are:
     Max number of different atomic species (ntypx) = 10
     Max number of k-points (npk) =  40000
     Max angular momentum in pseudopotentials (lmaxx) =  4
     Found symmetry operation: I + (  0.0000 -0.5000 -0.5000)
     This is a supercell, fractional translations are disabled
     Message from routine setup:
     using ibrav=0 with symmetry is DISCOURAGED, use correct ibrav instead

     Subspace diagonalization in iterative solution of the eigenvalue problem:
     a serial algorithm will be used

 
     G-vector sticks info
     --------------------
     sticks:   dense  smooth     PW     G-vecs:    dense   smooth      PW
     Sum        1229     613    193                32675    11513    2103
 
     Using Slab Decomposition
 


     bravais-lattice index     =            0
     lattice parameter (alat)  =       7.4455  a.u.
     unit-cell volume          =     412.7483 (a.u.)^3
     number of atoms/cell      =            4
     number of atomic types    =            1
     number of electrons       =        64.00
     number of Kohn-Sham states=           38
     kinetic-energy cutoff     =      35.0000  Ry
     charge density cutoff     =     280.0000  Ry
     scf convergence threshold =      8.0E-10
     mixing beta               =       0.4000
     number of iterations used =            8  plain     mixing
     Exchange-correlation= SLA  PW   PSX  PSC
                           (   1   4  10   8   0   0   0)

     GPU acceleration is ACTIVE.
     GPU-aware MPI enabled


     GPU used by master process:

        Device Number: 0
        Device name: NVIDIA GeForce RTX 4090
        Compute capability : 89
        Ratio of single to double precision performance  : 64
        Memory Clock Rate (KHz): 10501000
        Memory Bus Width (bits): 384
        Peak Memory Bandwidth (GB/s): ******

     celldm(1)=   7.445521  celldm(2)=   0.000000  celldm(3)=   0.000000
     celldm(4)=   0.000000  celldm(5)=   0.000000  celldm(6)=   0.000000

     crystal axes: (cart. coord. in units of alat)
               a(1) = (   1.000000   0.000000   0.000000 )  
               a(2) = (   0.000000   1.000000   0.000000 )  
               a(3) = (   0.000000   0.000000   1.000000 )  

     reciprocal axes: (cart. coord. in units 2 pi/alat)
               b(1) = (  1.000000  0.000000  0.000000 )  
               b(2) = (  0.000000  1.000000  0.000000 )  
               b(3) = (  0.000000  0.000000  1.000000 )  


     PseudoPot. # 1 for Pt read from file:
     ./pt/pseudo/pt_pbesol_v1.4.uspp.F.UPF
     MD5 check sum: d14d547907f752a992688280a7473f8c
     Pseudo is Ultrasoft + core correction, Zval = 16.0
     Generated by new atomic code, or converted to UPF format
     Using radial grid of  985 points,  6 beta functions with: 
                l(1) =   0
                l(2) =   0
                l(3) =   1
                l(4) =   1
                l(5) =   2
                l(6) =   2
     Q(r) pseudized with  8 coefficients,  rinner =    1.300   1.300   1.300
                                                       1.300   1.300

     atomic species   valence    mass     pseudopotential
        Pt            16.00   195.08400     Pt( 1.00)

     48 Sym. Ops., with inversion, found


                                    s                        frac. trans.

      isym =  1     identity                                     

 cryst.   s( 1) = (     1          0          0      )
                  (     0          1          0      )
                  (     0          0          1      )

 cart.    s( 1) = (  1.0000000  0.0000000  0.0000000 )
                  (  0.0000000  1.0000000  0.0000000 )
                  (  0.0000000  0.0000000  1.0000000 )


      isym =  2     180 deg rotation - cart. axis [0,0,1]        

 cryst.   s( 2) = (    -1          0          0      )
                  (     0         -1          0      )
                  (     0          0          1      )

 cart.    s( 2) = ( -1.0000000  0.0000000  0.0000000 )
                  (  0.0000000 -1.0000000  0.0000000 )
                  (  0.0000000  0.0000000  1.0000000 )


      isym =  3     180 deg rotation - cart. axis [0,1,0]        

 cryst.   s( 3) = (    -1          0          0      )
                  (     0          1          0      )
                  (     0          0         -1      )

 cart.    s( 3) = ( -1.0000000  0.0000000  0.0000000 )
                  (  0.0000000  1.0000000  0.0000000 )
                  (  0.0000000  0.0000000 -1.0000000 )


      isym =  4     180 deg rotation - cart. axis [1,0,0]        

 cryst.   s( 4) = (     1          0          0      )
                  (     0         -1          0      )
                  (     0          0         -1      )

 cart.    s( 4) = (  1.0000000  0.0000000  0.0000000 )
                  (  0.0000000 -1.0000000  0.0000000 )
                  (  0.0000000  0.0000000 -1.0000000 )


      isym =  5     180 deg rotation - cart. axis [1,1,0]        

 cryst.   s( 5) = (     0          1          0      )
                  (     1          0          0      )
                  (     0          0         -1      )

 cart.    s( 5) = (  0.0000000  1.0000000  0.0000000 )
                  (  1.0000000  0.0000000  0.0000000 )
                  (  0.0000000  0.0000000 -1.0000000 )


      isym =  6     180 deg rotation - cart. axis [1,-1,0]       

 cryst.   s( 6) = (     0         -1          0      )
                  (    -1          0          0      )
                  (     0          0         -1      )

 cart.    s( 6) = (  0.0000000 -1.0000000  0.0000000 )
                  ( -1.0000000  0.0000000  0.0000000 )
                  (  0.0000000  0.0000000 -1.0000000 )


      isym =  7      90 deg rotation - cart. axis [0,0,-1]       

 cryst.   s( 7) = (     0         -1          0      )
                  (     1          0          0      )
                  (     0          0          1      )

 cart.    s( 7) = (  0.0000000  1.0000000  0.0000000 )
                  ( -1.0000000  0.0000000  0.0000000 )
                  (  0.0000000  0.0000000  1.0000000 )


      isym =  8      90 deg rotation - cart. axis [0,0,1]        

 cryst.   s( 8) = (     0          1          0      )
                  (    -1          0          0      )
                  (     0          0          1      )

 cart.    s( 8) = (  0.0000000 -1.0000000  0.0000000 )
                  (  1.0000000  0.0000000  0.0000000 )
                  (  0.0000000  0.0000000  1.0000000 )


      isym =  9     180 deg rotation - cart. axis [1,0,1]        

 cryst.   s( 9) = (     0          0          1      )
                  (     0         -1          0      )
                  (     1          0          0      )

 cart.    s( 9) = (  0.0000000  0.0000000  1.0000000 )
                  (  0.0000000 -1.0000000  0.0000000 )
                  (  1.0000000  0.0000000  0.0000000 )


      isym = 10     180 deg rotation - cart. axis [-1,0,1]       

 cryst.   s(10) = (     0          0         -1      )
                  (     0         -1          0      )
                  (    -1          0          0      )

 cart.    s(10) = (  0.0000000  0.0000000 -1.0000000 )
                  (  0.0000000 -1.0000000  0.0000000 )
                  ( -1.0000000  0.0000000  0.0000000 )


      isym = 11      90 deg rotation - cart. axis [0,1,0]        

 cryst.   s(11) = (     0          0         -1      )
                  (     0          1          0      )
                  (     1          0          0      )

 cart.    s(11) = (  0.0000000  0.0000000  1.0000000 )
                  (  0.0000000  1.0000000  0.0000000 )
                  ( -1.0000000  0.0000000  0.0000000 )


      isym = 12      90 deg rotation - cart. axis [0,-1,0]       

 cryst.   s(12) = (     0          0          1      )
                  (     0          1          0      )
                  (    -1          0          0      )

 cart.    s(12) = (  0.0000000  0.0000000 -1.0000000 )
                  (  0.0000000  1.0000000  0.0000000 )
                  (  1.0000000  0.0000000  0.0000000 )


      isym = 13     180 deg rotation - cart. axis [0,1,1]        

 cryst.   s(13) = (    -1          0          0      )
                  (     0          0          1      )
                  (     0          1          0      )

 cart.    s(13) = ( -1.0000000  0.0000000  0.0000000 )
                  (  0.0000000  0.0000000  1.0000000 )
                  (  0.0000000  1.0000000  0.0000000 )


      isym = 14     180 deg rotation - cart. axis [0,1,-1]       

 cryst.   s(14) = (    -1          0          0      )
                  (     0          0         -1      )
                  (     0         -1          0      )

 cart.    s(14) = ( -1.0000000  0.0000000  0.0000000 )
                  (  0.0000000  0.0000000 -1.0000000 )
                  (  0.0000000 -1.0000000  0.0000000 )


      isym = 15      90 deg rotation - cart. axis [-1,0,0]       

 cryst.   s(15) = (     1          0          0      )
                  (     0          0         -1      )
                  (     0          1          0      )

 cart.    s(15) = (  1.0000000  0.0000000  0.0000000 )
                  (  0.0000000  0.0000000  1.0000000 )
                  (  0.0000000 -1.0000000  0.0000000 )


      isym = 16      90 deg rotation - cart. axis [1,0,0]        

 cryst.   s(16) = (     1          0          0      )
                  (     0          0          1      )
                  (     0         -1          0      )

 cart.    s(16) = (  1.0000000  0.0000000  0.0000000 )
                  (  0.0000000  0.0000000 -1.0000000 )
                  (  0.0000000  1.0000000  0.0000000 )


      isym = 17     120 deg rotation - cart. axis [-1,-1,-1]     

 cryst.   s(17) = (     0          0          1      )
                  (     1          0          0      )
                  (     0          1          0      )

 cart.    s(17) = (  0.0000000  1.0000000  0.0000000 )
                  (  0.0000000  0.0000000  1.0000000 )
                  (  1.0000000  0.0000000  0.0000000 )


      isym = 18     120 deg rotation - cart. axis [-1,1,1]       

 cryst.   s(18) = (     0          0         -1      )
                  (    -1          0          0      )
                  (     0          1          0      )

 cart.    s(18) = (  0.0000000 -1.0000000  0.0000000 )
                  (  0.0000000  0.0000000  1.0000000 )
                  ( -1.0000000  0.0000000  0.0000000 )


      isym = 19     120 deg rotation - cart. axis [1,1,-1]       

 cryst.   s(19) = (     0          0         -1      )
                  (     1          0          0      )
                  (     0         -1          0      )

 cart.    s(19) = (  0.0000000  1.0000000  0.0000000 )
                  (  0.0000000  0.0000000 -1.0000000 )
                  ( -1.0000000  0.0000000  0.0000000 )


      isym = 20     120 deg rotation - cart. axis [1,-1,1]       

 cryst.   s(20) = (     0          0          1      )
                  (    -1          0          0      )
                  (     0         -1          0      )

 cart.    s(20) = (  0.0000000 -1.0000000  0.0000000 )
                  (  0.0000000  0.0000000 -1.0000000 )
                  (  1.0000000  0.0000000  0.0000000 )


      isym = 21     120 deg rotation - cart. axis [1,1,1]        

 cryst.   s(21) = (     0          1          0      )
                  (     0          0          1      )
                  (     1          0          0      )

 cart.    s(21) = (  0.0000000  0.0000000  1.0000000 )
                  (  1.0000000  0.0000000  0.0000000 )
                  (  0.0000000  1.0000000  0.0000000 )


      isym = 22     120 deg rotation - cart. axis [-1,1,-1]      

 cryst.   s(22) = (     0         -1          0      )
                  (     0          0         -1      )
                  (     1          0          0      )

 cart.    s(22) = (  0.0000000  0.0000000  1.0000000 )
                  ( -1.0000000  0.0000000  0.0000000 )
                  (  0.0000000 -1.0000000  0.0000000 )


      isym = 23     120 deg rotation - cart. axis [1,-1,-1]      

 cryst.   s(23) = (     0         -1          0      )
                  (     0          0          1      )
                  (    -1          0          0      )

 cart.    s(23) = (  0.0000000  0.0000000 -1.0000000 )
                  ( -1.0000000  0.0000000  0.0000000 )
                  (  0.0000000  1.0000000  0.0000000 )


      isym = 24     120 deg rotation - cart. axis [-1,-1,1]      

 cryst.   s(24) = (     0          1          0      )
                  (     0          0         -1      )
                  (    -1          0          0      )

 cart.    s(24) = (  0.0000000  0.0000000 -1.0000000 )
                  (  1.0000000  0.0000000  0.0000000 )
                  (  0.0000000 -1.0000000  0.0000000 )


      isym = 25     inversion                                    

 cryst.   s(25) = (    -1          0          0      )
                  (     0         -1          0      )
                  (     0          0         -1      )

 cart.    s(25) = ( -1.0000000  0.0000000  0.0000000 )
                  (  0.0000000 -1.0000000  0.0000000 )
                  (  0.0000000  0.0000000 -1.0000000 )


      isym = 26     inv. 180 deg rotation - cart. axis [0,0,1]   

 cryst.   s(26) = (     1          0          0      )
                  (     0          1          0      )
                  (     0          0         -1      )

 cart.    s(26) = (  1.0000000  0.0000000  0.0000000 )
                  (  0.0000000  1.0000000  0.0000000 )
                  (  0.0000000  0.0000000 -1.0000000 )


      isym = 27     inv. 180 deg rotation - cart. axis [0,1,0]   

 cryst.   s(27) = (     1          0          0      )
                  (     0         -1          0      )
                  (     0          0          1      )

 cart.    s(27) = (  1.0000000  0.0000000  0.0000000 )
                  (  0.0000000 -1.0000000  0.0000000 )
                  (  0.0000000  0.0000000  1.0000000 )


      isym = 28     inv. 180 deg rotation - cart. axis [1,0,0]   

 cryst.   s(28) = (    -1          0          0      )
                  (     0          1          0      )
                  (     0          0          1      )

 cart.    s(28) = ( -1.0000000  0.0000000  0.0000000 )
                  (  0.0000000  1.0000000  0.0000000 )
                  (  0.0000000  0.0000000  1.0000000 )


      isym = 29     inv. 180 deg rotation - cart. axis [1,1,0]   

 cryst.   s(29) = (     0         -1          0      )
                  (    -1          0          0      )
                  (     0          0          1      )

 cart.    s(29) = (  0.0000000 -1.0000000  0.0000000 )
                  ( -1.0000000  0.0000000  0.0000000 )
                  (  0.0000000  0.0000000  1.0000000 )


      isym = 30     inv. 180 deg rotation - cart. axis [1,-1,0]  

 cryst.   s(30) = (     0          1          0      )
                  (     1          0          0      )
                  (     0          0          1      )

 cart.    s(30) = (  0.0000000  1.0000000  0.0000000 )
                  (  1.0000000  0.0000000  0.0000000 )
                  (  0.0000000  0.0000000  1.0000000 )


      isym = 31     inv.  90 deg rotation - cart. axis [0,0,-1]  

 cryst.   s(31) = (     0          1          0      )
                  (    -1          0          0      )
                  (     0          0         -1      )

 cart.    s(31) = (  0.0000000 -1.0000000  0.0000000 )
                  (  1.0000000  0.0000000  0.0000000 )
                  (  0.0000000  0.0000000 -1.0000000 )


      isym = 32     inv.  90 deg rotation - cart. axis [0,0,1]   

 cryst.   s(32) = (     0         -1          0      )
                  (     1          0          0      )
                  (     0          0         -1      )

 cart.    s(32) = (  0.0000000  1.0000000  0.0000000 )
                  ( -1.0000000  0.0000000  0.0000000 )
                  (  0.0000000  0.0000000 -1.0000000 )


      isym = 33     inv. 180 deg rotation - cart. axis [1,0,1]   

 cryst.   s(33) = (     0          0         -1      )
                  (     0          1          0      )
                  (    -1          0          0      )

 cart.    s(33) = (  0.0000000  0.0000000 -1.0000000 )
                  (  0.0000000  1.0000000  0.0000000 )
                  ( -1.0000000  0.0000000  0.0000000 )


      isym = 34     inv. 180 deg rotation - cart. axis [-1,0,1]  

 cryst.   s(34) = (     0          0          1      )
                  (     0          1          0      )
                  (     1          0          0      )

 cart.    s(34) = (  0.0000000  0.0000000  1.0000000 )
                  (  0.0000000  1.0000000  0.0000000 )
                  (  1.0000000  0.0000000  0.0000000 )


      isym = 35     inv.  90 deg rotation - cart. axis [0,1,0]   

 cryst.   s(35) = (     0          0          1      )
                  (     0         -1          0      )
                  (    -1          0          0      )

 cart.    s(35) = (  0.0000000  0.0000000 -1.0000000 )
                  (  0.0000000 -1.0000000  0.0000000 )
                  (  1.0000000  0.0000000  0.0000000 )


      isym = 36     inv.  90 deg rotation - cart. axis [0,-1,0]  

 cryst.   s(36) = (     0          0         -1      )
                  (     0         -1          0      )
                  (     1          0          0      )

 cart.    s(36) = (  0.0000000  0.0000000  1.0000000 )
                  (  0.0000000 -1.0000000  0.0000000 )
                  ( -1.0000000  0.0000000  0.0000000 )


      isym = 37     inv. 180 deg rotation - cart. axis [0,1,1]   

 cryst.   s(37) = (     1          0          0      )
                  (     0          0         -1      )
                  (     0         -1          0      )

 cart.    s(37) = (  1.0000000  0.0000000  0.0000000 )
                  (  0.0000000  0.0000000 -1.0000000 )
                  (  0.0000000 -1.0000000  0.0000000 )


      isym = 38     inv. 180 deg rotation - cart. axis [0,1,-1]  

 cryst.   s(38) = (     1          0          0      )
                  (     0          0          1      )
                  (     0          1          0      )

 cart.    s(38) = (  1.0000000  0.0000000  0.0000000 )
                  (  0.0000000  0.0000000  1.0000000 )
                  (  0.0000000  1.0000000  0.0000000 )


      isym = 39     inv.  90 deg rotation - cart. axis [-1,0,0]  

 cryst.   s(39) = (    -1          0          0      )
                  (     0          0          1      )
                  (     0         -1          0      )

 cart.    s(39) = ( -1.0000000  0.0000000  0.0000000 )
                  (  0.0000000  0.0000000 -1.0000000 )
                  (  0.0000000  1.0000000  0.0000000 )


      isym = 40     inv.  90 deg rotation - cart. axis [1,0,0]   

 cryst.   s(40) = (    -1          0          0      )
                  (     0          0         -1      )
                  (     0          1          0      )

 cart.    s(40) = ( -1.0000000  0.0000000  0.0000000 )
                  (  0.0000000  0.0000000  1.0000000 )
                  (  0.0000000 -1.0000000  0.0000000 )


      isym = 41     inv. 120 deg rotation - cart. axis [-1,-1,-1]

 cryst.   s(41) = (     0          0         -1      )
                  (    -1          0          0      )
                  (     0         -1          0      )

 cart.    s(41) = (  0.0000000 -1.0000000  0.0000000 )
                  (  0.0000000  0.0000000 -1.0000000 )
                  ( -1.0000000  0.0000000  0.0000000 )


      isym = 42     inv. 120 deg rotation - cart. axis [-1,1,1]  

 cryst.   s(42) = (     0          0          1      )
                  (     1          0          0      )
                  (     0         -1          0      )

 cart.    s(42) = (  0.0000000  1.0000000  0.0000000 )
                  (  0.0000000  0.0000000 -1.0000000 )
                  (  1.0000000  0.0000000  0.0000000 )


      isym = 43     inv. 120 deg rotation - cart. axis [1,1,-1]  

 cryst.   s(43) = (     0          0          1      )
                  (    -1          0          0      )
                  (     0          1          0      )

 cart.    s(43) = (  0.0000000 -1.0000000  0.0000000 )
                  (  0.0000000  0.0000000  1.0000000 )
                  (  1.0000000  0.0000000  0.0000000 )


      isym = 44     inv. 120 deg rotation - cart. axis [1,-1,1]  

 cryst.   s(44) = (     0          0         -1      )
                  (     1          0          0      )
                  (     0          1          0      )

 cart.    s(44) = (  0.0000000  1.0000000  0.0000000 )
                  (  0.0000000  0.0000000  1.0000000 )
                  ( -1.0000000  0.0000000  0.0000000 )


      isym = 45     inv. 120 deg rotation - cart. axis [1,1,1]   

 cryst.   s(45) = (     0         -1          0      )
                  (     0          0         -1      )
                  (    -1          0          0      )

 cart.    s(45) = (  0.0000000  0.0000000 -1.0000000 )
                  ( -1.0000000  0.0000000  0.0000000 )
                  (  0.0000000 -1.0000000  0.0000000 )


      isym = 46     inv. 120 deg rotation - cart. axis [-1,1,-1] 

 cryst.   s(46) = (     0          1          0      )
                  (     0          0          1      )
                  (    -1          0          0      )

 cart.    s(46) = (  0.0000000  0.0000000 -1.0000000 )
                  (  1.0000000  0.0000000  0.0000000 )
                  (  0.0000000  1.0000000  0.0000000 )


      isym = 47     inv. 120 deg rotation - cart. axis [1,-1,-1] 

 cryst.   s(47) = (     0          1          0      )
                  (     0          0         -1      )
                  (     1          0          0      )

 cart.    s(47) = (  0.0000000  0.0000000  1.0000000 )
                  (  1.0000000  0.0000000  0.0000000 )
                  (  0.0000000 -1.0000000  0.0000000 )


      isym = 48     inv. 120 deg rotation - cart. axis [-1,-1,1] 

 cryst.   s(48) = (     0         -1          0      )
                  (     0          0          1      )
                  (     1          0          0      )

 cart.    s(48) = (  0.0000000  0.0000000  1.0000000 )
                  ( -1.0000000  0.0000000  0.0000000 )
                  (  0.0000000  1.0000000  0.0000000 )


   Cartesian axes

     site n.     atom                  positions (alat units)
         1           Pt  tau(   1) = (   0.0000000   0.0000000   0.0000000  )
         2           Pt  tau(   2) = (   0.0000000   0.5000000   0.5000000  )
         3           Pt  tau(   3) = (   0.5000000   0.0000000   0.5000000  )
         4           Pt  tau(   4) = (   0.5000000   0.5000000   0.0000000  )

   Crystallographic axes

     site n.     atom                  positions (cryst. coord.)
         1           Pt  tau(   1) = (  0.0000000  0.0000000  0.0000000  )
         2           Pt  tau(   2) = (  0.0000000  0.5000000  0.5000000  )
         3           Pt  tau(   3) = (  0.5000000  0.0000000  0.5000000  )
         4           Pt  tau(   4) = (  0.5000000  0.5000000  0.0000000  )

     number of k points=   165  Marzari-Vanderbilt smearing, width (Ry)=  0.0125
                       cart. coord. in units 2pi/alat
        k(    1) = (   0.0000000   0.0000000   0.0000000), wk =   0.0004883
        k(    2) = (   0.0000000   0.0000000   0.0625000), wk =   0.0029297
        k(    3) = (   0.0000000   0.0000000   0.1250000), wk =   0.0029297
        k(    4) = (   0.0000000   0.0000000   0.1875000), wk =   0.0029297
        k(    5) = (   0.0000000   0.0000000   0.2500000), wk =   0.0029297
        k(    6) = (   0.0000000   0.0000000   0.3125000), wk =   0.0029297
        k(    7) = (   0.0000000   0.0000000   0.3750000), wk =   0.0029297
        k(    8) = (   0.0000000   0.0000000   0.4375000), wk =   0.0029297
        k(    9) = (   0.0000000   0.0000000  -0.5000000), wk =   0.0014648
        k(   10) = (   0.0000000   0.0625000   0.0625000), wk =   0.0058594
        k(   11) = (   0.0000000   0.0625000   0.1250000), wk =   0.0117188
        k(   12) = (   0.0000000   0.0625000   0.1875000), wk =   0.0117188
        k(   13) = (   0.0000000   0.0625000   0.2500000), wk =   0.0117188
        k(   14) = (   0.0000000   0.0625000   0.3125000), wk =   0.0117188
        k(   15) = (   0.0000000   0.0625000   0.3750000), wk =   0.0117188
        k(   16) = (   0.0000000   0.0625000   0.4375000), wk =   0.0117188
        k(   17) = (   0.0000000   0.0625000  -0.5000000), wk =   0.0058594
        k(   18) = (   0.0000000   0.1250000   0.1250000), wk =   0.0058594
        k(   19) = (   0.0000000   0.1250000   0.1875000), wk =   0.0117188
        k(   20) = (   0.0000000   0.1250000   0.2500000), wk =   0.0117188
        k(   21) = (   0.0000000   0.1250000   0.3125000), wk =   0.0117188
        k(   22) = (   0.0000000   0.1250000   0.3750000), wk =   0.0117188
        k(   23) = (   0.0000000   0.1250000   0.4375000), wk =   0.0117188
        k(   24) = (   0.0000000   0.1250000  -0.5000000), wk =   0.0058594
        k(   25) = (   0.0000000   0.1875000   0.1875000), wk =   0.0058594
        k(   26) = (   0.0000000   0.1875000   0.2500000), wk =   0.0117188
        k(   27) = (   0.0000000   0.1875000   0.3125000), wk =   0.0117188
        k(   28) = (   0.0000000   0.1875000   0.3750000), wk =   0.0117188
        k(   29) = (   0.0000000   0.1875000   0.4375000), wk =   0.0117188
        k(   30) = (   0.0000000   0.1875000  -0.5000000), wk =   0.0058594
        k(   31) = (   0.0000000   0.2500000   0.2500000), wk =   0.0058594
        k(   32) = (   0.0000000   0.2500000   0.3125000), wk =   0.0117188
        k(   33) = (   0.0000000   0.2500000   0.3750000), wk =   0.0117188
        k(   34) = (   0.0000000   0.2500000   0.4375000), wk =   0.0117188
        k(   35) = (   0.0000000   0.2500000  -0.5000000), wk =   0.0058594
        k(   36) = (   0.0000000   0.3125000   0.3125000), wk =   0.0058594
        k(   37) = (   0.0000000   0.3125000   0.3750000), wk =   0.0117188
        k(   38) = (   0.0000000   0.3125000   0.4375000), wk =   0.0117188
        k(   39) = (   0.0000000   0.3125000  -0.5000000), wk =   0.0058594
        k(   40) = (   0.0000000   0.3750000   0.3750000), wk =   0.0058594
        k(   41) = (   0.0000000   0.3750000   0.4375000), wk =   0.0117188
        k(   42) = (   0.0000000   0.3750000  -0.5000000), wk =   0.0058594
        k(   43) = (   0.0000000   0.4375000   0.4375000), wk =   0.0058594
        k(   44) = (   0.0000000   0.4375000  -0.5000000), wk =   0.0058594
        k(   45) = (   0.0000000  -0.5000000  -0.5000000), wk =   0.0014648
        k(   46) = (   0.0625000   0.0625000   0.0625000), wk =   0.0039063
        k(   47) = (   0.0625000   0.0625000   0.1250000), wk =   0.0117188
        k(   48) = (   0.0625000   0.0625000   0.1875000), wk =   0.0117188
        k(   49) = (   0.0625000   0.0625000   0.2500000), wk =   0.0117188
        k(   50) = (   0.0625000   0.0625000   0.3125000), wk =   0.0117188
        k(   51) = (   0.0625000   0.0625000   0.3750000), wk =   0.0117188
        k(   52) = (   0.0625000   0.0625000   0.4375000), wk =   0.0117188
        k(   53) = (   0.0625000   0.0625000  -0.5000000), wk =   0.0058594
        k(   54) = (   0.0625000   0.1250000   0.1250000), wk =   0.0117188
        k(   55) = (   0.0625000   0.1250000   0.1875000), wk =   0.0234375
        k(   56) = (   0.0625000   0.1250000   0.2500000), wk =   0.0234375
        k(   57) = (   0.0625000   0.1250000   0.3125000), wk =   0.0234375
        k(   58) = (   0.0625000   0.1250000   0.3750000), wk =   0.0234375
        k(   59) = (   0.0625000   0.1250000   0.4375000), wk =   0.0234375
        k(   60) = (   0.0625000   0.1250000  -0.5000000), wk =   0.0117188
        k(   61) = (   0.0625000   0.1875000   0.1875000), wk =   0.0117188
        k(   62) = (   0.0625000   0.1875000   0.2500000), wk =   0.0234375
        k(   63) = (   0.0625000   0.1875000   0.3125000), wk =   0.0234375
        k(   64) = (   0.0625000   0.1875000   0.3750000), wk =   0.0234375
        k(   65) = (   0.0625000   0.1875000   0.4375000), wk =   0.0234375
        k(   66) = (   0.0625000   0.1875000  -0.5000000), wk =   0.0117188
        k(   67) = (   0.0625000   0.2500000   0.2500000), wk =   0.0117188
        k(   68) = (   0.0625000   0.2500000   0.3125000), wk =   0.0234375
        k(   69) = (   0.0625000   0.2500000   0.3750000), wk =   0.0234375
        k(   70) = (   0.0625000   0.2500000   0.4375000), wk =   0.0234375
        k(   71) = (   0.0625000   0.2500000  -0.5000000), wk =   0.0117188
        k(   72) = (   0.0625000   0.3125000   0.3125000), wk =   0.0117188
        k(   73) = (   0.0625000   0.3125000   0.3750000), wk =   0.0234375
        k(   74) = (   0.0625000   0.3125000   0.4375000), wk =   0.0234375
        k(   75) = (   0.0625000   0.3125000  -0.5000000), wk =   0.0117188
        k(   76) = (   0.0625000   0.3750000   0.3750000), wk =   0.0117188
        k(   77) = (   0.0625000   0.3750000   0.4375000), wk =   0.0234375
        k(   78) = (   0.0625000   0.3750000  -0.5000000), wk =   0.0117188
        k(   79) = (   0.0625000   0.4375000   0.4375000), wk =   0.0117188
        k(   80) = (   0.0625000   0.4375000  -0.5000000), wk =   0.0117188
        k(   81) = (   0.0625000  -0.5000000  -0.5000000), wk =   0.0029297
        k(   82) = (   0.1250000   0.1250000   0.1250000), wk =   0.0039063
        k(   83) = (   0.1250000   0.1250000   0.1875000), wk =   0.0117188
        k(   84) = (   0.1250000   0.1250000   0.2500000), wk =   0.0117188
        k(   85) = (   0.1250000   0.1250000   0.3125000), wk =   0.0117188
        k(   86) = (   0.1250000   0.1250000   0.3750000), wk =   0.0117188
        k(   87) = (   0.1250000   0.1250000   0.4375000), wk =   0.0117188
        k(   88) = (   0.1250000   0.1250000  -0.5000000), wk =   0.0058594
        k(   89) = (   0.1250000   0.1875000   0.1875000), wk =   0.0117188
        k(   90) = (   0.1250000   0.1875000   0.2500000), wk =   0.0234375
        k(   91) = (   0.1250000   0.1875000   0.3125000), wk =   0.0234375
        k(   92) = (   0.1250000   0.1875000   0.3750000), wk =   0.0234375
        k(   93) = (   0.1250000   0.1875000   0.4375000), wk =   0.0234375
        k(   94) = (   0.1250000   0.1875000  -0.5000000), wk =   0.0117188
        k(   95) = (   0.1250000   0.2500000   0.2500000), wk =   0.0117188
        k(   96) = (   0.1250000   0.2500000   0.3125000), wk =   0.0234375
        k(   97) = (   0.1250000   0.2500000   0.3750000), wk =   0.0234375
        k(   98) = (   0.1250000   0.2500000   0.4375000), wk =   0.0234375
        k(   99) = (   0.1250000   0.2500000  -0.5000000), wk =   0.0117188
        k(  100) = (   0.1250000   0.3125000   0.3125000), wk =   0.0117188
        k(  101) = (   0.1250000   0.3125000   0.3750000), wk =   0.0234375
        k(  102) = (   0.1250000   0.3125000   0.4375000), wk =   0.0234375
        k(  103) = (   0.1250000   0.3125000  -0.5000000), wk =   0.0117188
        k(  104) = (   0.1250000   0.3750000   0.3750000), wk =   0.0117188
        k(  105) = (   0.1250000   0.3750000   0.4375000), wk =   0.0234375
        k(  106) = (   0.1250000   0.3750000  -0.5000000), wk =   0.0117188
        k(  107) = (   0.1250000   0.4375000   0.4375000), wk =   0.0117188
        k(  108) = (   0.1250000   0.4375000  -0.5000000), wk =   0.0117188
        k(  109) = (   0.1250000  -0.5000000  -0.5000000), wk =   0.0029297
        k(  110) = (   0.1875000   0.1875000   0.1875000), wk =   0.0039063
        k(  111) = (   0.1875000   0.1875000   0.2500000), wk =   0.0117188
        k(  112) = (   0.1875000   0.1875000   0.3125000), wk =   0.0117188
        k(  113) = (   0.1875000   0.1875000   0.3750000), wk =   0.0117188
        k(  114) = (   0.1875000   0.1875000   0.4375000), wk =   0.0117188
        k(  115) = (   0.1875000   0.1875000  -0.5000000), wk =   0.0058594
        k(  116) = (   0.1875000   0.2500000   0.2500000), wk =   0.0117188
        k(  117) = (   0.1875000   0.2500000   0.3125000), wk =   0.0234375
        k(  118) = (   0.1875000   0.2500000   0.3750000), wk =   0.0234375
        k(  119) = (   0.1875000   0.2500000   0.4375000), wk =   0.0234375
        k(  120) = (   0.1875000   0.2500000  -0.5000000), wk =   0.0117188
        k(  121) = (   0.1875000   0.3125000   0.3125000), wk =   0.0117188
        k(  122) = (   0.1875000   0.3125000   0.3750000), wk =   0.0234375
        k(  123) = (   0.1875000   0.3125000   0.4375000), wk =   0.0234375
        k(  124) = (   0.1875000   0.3125000  -0.5000000), wk =   0.0117188
        k(  125) = (   0.1875000   0.3750000   0.3750000), wk =   0.0117188
        k(  126) = (   0.1875000   0.3750000   0.4375000), wk =   0.0234375
        k(  127) = (   0.1875000   0.3750000  -0.5000000), wk =   0.0117188
        k(  128) = (   0.1875000   0.4375000   0.4375000), wk =   0.0117188
        k(  129) = (   0.1875000   0.4375000  -0.5000000), wk =   0.0117188
        k(  130) = (   0.1875000  -0.5000000  -0.5000000), wk =   0.0029297
        k(  131) = (   0.2500000   0.2500000   0.2500000), wk =   0.0039063
        k(  132) = (   0.2500000   0.2500000   0.3125000), wk =   0.0117188
        k(  133) = (   0.2500000   0.2500000   0.3750000), wk =   0.0117188
        k(  134) = (   0.2500000   0.2500000   0.4375000), wk =   0.0117188
        k(  135) = (   0.2500000   0.2500000  -0.5000000), wk =   0.0058594
        k(  136) = (   0.2500000   0.3125000   0.3125000), wk =   0.0117188
        k(  137) = (   0.2500000   0.3125000   0.3750000), wk =   0.0234375
        k(  138) = (   0.2500000   0.3125000   0.4375000), wk =   0.0234375
        k(  139) = (   0.2500000   0.3125000  -0.5000000), wk =   0.0117188
        k(  140) = (   0.2500000   0.3750000   0.3750000), wk =   0.0117188
        k(  141) = (   0.2500000   0.3750000   0.4375000), wk =   0.0234375
        k(  142) = (   0.2500000   0.3750000  -0.5000000), wk =   0.0117188
        k(  143) = (   0.2500000   0.4375000   0.4375000), wk =   0.0117188
        k(  144) = (   0.2500000   0.4375000  -0.5000000), wk =   0.0117188
        k(  145) = (   0.2500000  -0.5000000  -0.5000000), wk =   0.0029297
        k(  146) = (   0.3125000   0.3125000   0.3125000), wk =   0.0039063
        k(  147) = (   0.3125000   0.3125000   0.3750000), wk =   0.0117188
        k(  148) = (   0.3125000   0.3125000   0.4375000), wk =   0.0117188
        k(  149) = (   0.3125000   0.3125000  -0.5000000), wk =   0.0058594
        k(  150) = (   0.3125000   0.3750000   0.3750000), wk =   0.0117188
        k(  151) = (   0.3125000   0.3750000   0.4375000), wk =   0.0234375
        k(  152) = (   0.3125000   0.3750000  -0.5000000), wk =   0.0117188
        k(  153) = (   0.3125000   0.4375000   0.4375000), wk =   0.0117188
        k(  154) = (   0.3125000   0.4375000  -0.5000000), wk =   0.0117188
        k(  155) = (   0.3125000  -0.5000000  -0.5000000), wk =   0.0029297
        k(  156) = (   0.3750000   0.3750000   0.3750000), wk =   0.0039063
        k(  157) = (   0.3750000   0.3750000   0.4375000), wk =   0.0117188
        k(  158) = (   0.3750000   0.3750000  -0.5000000), wk =   0.0058594
        k(  159) = (   0.3750000   0.4375000   0.4375000), wk =   0.0117188
        k(  160) = (   0.3750000   0.4375000  -0.5000000), wk =   0.0117188
        k(  161) = (   0.3750000  -0.5000000  -0.5000000), wk =   0.0029297
        k(  162) = (   0.4375000   0.4375000   0.4375000), wk =   0.0039063
        k(  163) = (   0.4375000   0.4375000  -0.5000000), wk =   0.0058594
        k(  164) = (   0.4375000  -0.5000000  -0.5000000), wk =   0.0029297
        k(  165) = (  -0.5000000  -0.5000000  -0.5000000), wk =   0.0004883

                       cryst. coord.
        k(    1) = (   0.0000000   0.0000000   0.0000000), wk =   0.0004883
        k(    2) = (   0.0000000   0.0000000   0.0625000), wk =   0.0029297
        k(    3) = (   0.0000000   0.0000000   0.1250000), wk =   0.0029297
        k(    4) = (   0.0000000   0.0000000   0.1875000), wk =   0.0029297
        k(    5) = (   0.0000000   0.0000000   0.2500000), wk =   0.0029297
        k(    6) = (   0.0000000   0.0000000   0.3125000), wk =   0.0029297
        k(    7) = (   0.0000000   0.0000000   0.3750000), wk =   0.0029297
        k(    8) = (   0.0000000   0.0000000   0.4375000), wk =   0.0029297
        k(    9) = (   0.0000000   0.0000000  -0.5000000), wk =   0.0014648
        k(   10) = (   0.0000000   0.0625000   0.0625000), wk =   0.0058594
        k(   11) = (   0.0000000   0.0625000   0.1250000), wk =   0.0117188
        k(   12) = (   0.0000000   0.0625000   0.1875000), wk =   0.0117188
        k(   13) = (   0.0000000   0.0625000   0.2500000), wk =   0.0117188
        k(   14) = (   0.0000000   0.0625000   0.3125000), wk =   0.0117188
        k(   15) = (   0.0000000   0.0625000   0.3750000), wk =   0.0117188
        k(   16) = (   0.0000000   0.0625000   0.4375000), wk =   0.0117188
        k(   17) = (   0.0000000   0.0625000  -0.5000000), wk =   0.0058594
        k(   18) = (   0.0000000   0.1250000   0.1250000), wk =   0.0058594
        k(   19) = (   0.0000000   0.1250000   0.1875000), wk =   0.0117188
        k(   20) = (   0.0000000   0.1250000   0.2500000), wk =   0.0117188
        k(   21) = (   0.0000000   0.1250000   0.3125000), wk =   0.0117188
        k(   22) = (   0.0000000   0.1250000   0.3750000), wk =   0.0117188
        k(   23) = (   0.0000000   0.1250000   0.4375000), wk =   0.0117188
        k(   24) = (   0.0000000   0.1250000  -0.5000000), wk =   0.0058594
        k(   25) = (   0.0000000   0.1875000   0.1875000), wk =   0.0058594
        k(   26) = (   0.0000000   0.1875000   0.2500000), wk =   0.0117188
        k(   27) = (   0.0000000   0.1875000   0.3125000), wk =   0.0117188
        k(   28) = (   0.0000000   0.1875000   0.3750000), wk =   0.0117188
        k(   29) = (   0.0000000   0.1875000   0.4375000), wk =   0.0117188
        k(   30) = (   0.0000000   0.1875000  -0.5000000), wk =   0.0058594
        k(   31) = (   0.0000000   0.2500000   0.2500000), wk =   0.0058594
        k(   32) = (   0.0000000   0.2500000   0.3125000), wk =   0.0117188
        k(   33) = (   0.0000000   0.2500000   0.3750000), wk =   0.0117188
        k(   34) = (   0.0000000   0.2500000   0.4375000), wk =   0.0117188
        k(   35) = (   0.0000000   0.2500000  -0.5000000), wk =   0.0058594
        k(   36) = (   0.0000000   0.3125000   0.3125000), wk =   0.0058594
        k(   37) = (   0.0000000   0.3125000   0.3750000), wk =   0.0117188
        k(   38) = (   0.0000000   0.3125000   0.4375000), wk =   0.0117188
        k(   39) = (   0.0000000   0.3125000  -0.5000000), wk =   0.0058594
        k(   40) = (   0.0000000   0.3750000   0.3750000), wk =   0.0058594
        k(   41) = (   0.0000000   0.3750000   0.4375000), wk =   0.0117188
        k(   42) = (   0.0000000   0.3750000  -0.5000000), wk =   0.0058594
        k(   43) = (   0.0000000   0.4375000   0.4375000), wk =   0.0058594
        k(   44) = (   0.0000000   0.4375000  -0.5000000), wk =   0.0058594
        k(   45) = (   0.0000000  -0.5000000  -0.5000000), wk =   0.0014648
        k(   46) = (   0.0625000   0.0625000   0.0625000), wk =   0.0039063
        k(   47) = (   0.0625000   0.0625000   0.1250000), wk =   0.0117188
        k(   48) = (   0.0625000   0.0625000   0.1875000), wk =   0.0117188
        k(   49) = (   0.0625000   0.0625000   0.2500000), wk =   0.0117188
        k(   50) = (   0.0625000   0.0625000   0.3125000), wk =   0.0117188
        k(   51) = (   0.0625000   0.0625000   0.3750000), wk =   0.0117188
        k(   52) = (   0.0625000   0.0625000   0.4375000), wk =   0.0117188
        k(   53) = (   0.0625000   0.0625000  -0.5000000), wk =   0.0058594
        k(   54) = (   0.0625000   0.1250000   0.1250000), wk =   0.0117188
        k(   55) = (   0.0625000   0.1250000   0.1875000), wk =   0.0234375
        k(   56) = (   0.0625000   0.1250000   0.2500000), wk =   0.0234375
        k(   57) = (   0.0625000   0.1250000   0.3125000), wk =   0.0234375
        k(   58) = (   0.0625000   0.1250000   0.3750000), wk =   0.0234375
        k(   59) = (   0.0625000   0.1250000   0.4375000), wk =   0.0234375
        k(   60) = (   0.0625000   0.1250000  -0.5000000), wk =   0.0117188
        k(   61) = (   0.0625000   0.1875000   0.1875000), wk =   0.0117188
        k(   62) = (   0.0625000   0.1875000   0.2500000), wk =   0.0234375
        k(   63) = (   0.0625000   0.1875000   0.3125000), wk =   0.0234375
        k(   64) = (   0.0625000   0.1875000   0.3750000), wk =   0.0234375
        k(   65) = (   0.0625000   0.1875000   0.4375000), wk =   0.0234375
        k(   66) = (   0.0625000   0.1875000  -0.5000000), wk =   0.0117188
        k(   67) = (   0.0625000   0.2500000   0.2500000), wk =   0.0117188
        k(   68) = (   0.0625000   0.2500000   0.3125000), wk =   0.0234375
        k(   69) = (   0.0625000   0.2500000   0.3750000), wk =   0.0234375
        k(   70) = (   0.0625000   0.2500000   0.4375000), wk =   0.0234375
        k(   71) = (   0.0625000   0.2500000  -0.5000000), wk =   0.0117188
        k(   72) = (   0.0625000   0.3125000   0.3125000), wk =   0.0117188
        k(   73) = (   0.0625000   0.3125000   0.3750000), wk =   0.0234375
        k(   74) = (   0.0625000   0.3125000   0.4375000), wk =   0.0234375
        k(   75) = (   0.0625000   0.3125000  -0.5000000), wk =   0.0117188
        k(   76) = (   0.0625000   0.3750000   0.3750000), wk =   0.0117188
        k(   77) = (   0.0625000   0.3750000   0.4375000), wk =   0.0234375
        k(   78) = (   0.0625000   0.3750000  -0.5000000), wk =   0.0117188
        k(   79) = (   0.0625000   0.4375000   0.4375000), wk =   0.0117188
        k(   80) = (   0.0625000   0.4375000  -0.5000000), wk =   0.0117188
        k(   81) = (   0.0625000  -0.5000000  -0.5000000), wk =   0.0029297
        k(   82) = (   0.1250000   0.1250000   0.1250000), wk =   0.0039063
        k(   83) = (   0.1250000   0.1250000   0.1875000), wk =   0.0117188
        k(   84) = (   0.1250000   0.1250000   0.2500000), wk =   0.0117188
        k(   85) = (   0.1250000   0.1250000   0.3125000), wk =   0.0117188
        k(   86) = (   0.1250000   0.1250000   0.3750000), wk =   0.0117188
        k(   87) = (   0.1250000   0.1250000   0.4375000), wk =   0.0117188
        k(   88) = (   0.1250000   0.1250000  -0.5000000), wk =   0.0058594
        k(   89) = (   0.1250000   0.1875000   0.1875000), wk =   0.0117188
        k(   90) = (   0.1250000   0.1875000   0.2500000), wk =   0.0234375
        k(   91) = (   0.1250000   0.1875000   0.3125000), wk =   0.0234375
        k(   92) = (   0.1250000   0.1875000   0.3750000), wk =   0.0234375
        k(   93) = (   0.1250000   0.1875000   0.4375000), wk =   0.0234375
        k(   94) = (   0.1250000   0.1875000  -0.5000000), wk =   0.0117188
        k(   95) = (   0.1250000   0.2500000   0.2500000), wk =   0.0117188
        k(   96) = (   0.1250000   0.2500000   0.3125000), wk =   0.0234375
        k(   97) = (   0.1250000   0.2500000   0.3750000), wk =   0.0234375
        k(   98) = (   0.1250000   0.2500000   0.4375000), wk =   0.0234375
        k(   99) = (   0.1250000   0.2500000  -0.5000000), wk =   0.0117188
        k(  100) = (   0.1250000   0.3125000   0.3125000), wk =   0.0117188
        k(  101) = (   0.1250000   0.3125000   0.3750000), wk =   0.0234375
        k(  102) = (   0.1250000   0.3125000   0.4375000), wk =   0.0234375
        k(  103) = (   0.1250000   0.3125000  -0.5000000), wk =   0.0117188
        k(  104) = (   0.1250000   0.3750000   0.3750000), wk =   0.0117188
        k(  105) = (   0.1250000   0.3750000   0.4375000), wk =   0.0234375
        k(  106) = (   0.1250000   0.3750000  -0.5000000), wk =   0.0117188
        k(  107) = (   0.1250000   0.4375000   0.4375000), wk =   0.0117188
        k(  108) = (   0.1250000   0.4375000  -0.5000000), wk =   0.0117188
        k(  109) = (   0.1250000  -0.5000000  -0.5000000), wk =   0.0029297
        k(  110) = (   0.1875000   0.1875000   0.1875000), wk =   0.0039063
        k(  111) = (   0.1875000   0.1875000   0.2500000), wk =   0.0117188
        k(  112) = (   0.1875000   0.1875000   0.3125000), wk =   0.0117188
        k(  113) = (   0.1875000   0.1875000   0.3750000), wk =   0.0117188
        k(  114) = (   0.1875000   0.1875000   0.4375000), wk =   0.0117188
        k(  115) = (   0.1875000   0.1875000  -0.5000000), wk =   0.0058594
        k(  116) = (   0.1875000   0.2500000   0.2500000), wk =   0.0117188
        k(  117) = (   0.1875000   0.2500000   0.3125000), wk =   0.0234375
        k(  118) = (   0.1875000   0.2500000   0.3750000), wk =   0.0234375
        k(  119) = (   0.1875000   0.2500000   0.4375000), wk =   0.0234375
        k(  120) = (   0.1875000   0.2500000  -0.5000000), wk =   0.0117188
        k(  121) = (   0.1875000   0.3125000   0.3125000), wk =   0.0117188
        k(  122) = (   0.1875000   0.3125000   0.3750000), wk =   0.0234375
        k(  123) = (   0.1875000   0.3125000   0.4375000), wk =   0.0234375
        k(  124) = (   0.1875000   0.3125000  -0.5000000), wk =   0.0117188
        k(  125) = (   0.1875000   0.3750000   0.3750000), wk =   0.0117188
        k(  126) = (   0.1875000   0.3750000   0.4375000), wk =   0.0234375
        k(  127) = (   0.1875000   0.3750000  -0.5000000), wk =   0.0117188
        k(  128) = (   0.1875000   0.4375000   0.4375000), wk =   0.0117188
        k(  129) = (   0.1875000   0.4375000  -0.5000000), wk =   0.0117188
        k(  130) = (   0.1875000  -0.5000000  -0.5000000), wk =   0.0029297
        k(  131) = (   0.2500000   0.2500000   0.2500000), wk =   0.0039063
        k(  132) = (   0.2500000   0.2500000   0.3125000), wk =   0.0117188
        k(  133) = (   0.2500000   0.2500000   0.3750000), wk =   0.0117188
        k(  134) = (   0.2500000   0.2500000   0.4375000), wk =   0.0117188
        k(  135) = (   0.2500000   0.2500000  -0.5000000), wk =   0.0058594
        k(  136) = (   0.2500000   0.3125000   0.3125000), wk =   0.0117188
        k(  137) = (   0.2500000   0.3125000   0.3750000), wk =   0.0234375
        k(  138) = (   0.2500000   0.3125000   0.4375000), wk =   0.0234375
        k(  139) = (   0.2500000   0.3125000  -0.5000000), wk =   0.0117188
        k(  140) = (   0.2500000   0.3750000   0.3750000), wk =   0.0117188
        k(  141) = (   0.2500000   0.3750000   0.4375000), wk =   0.0234375
        k(  142) = (   0.2500000   0.3750000  -0.5000000), wk =   0.0117188
        k(  143) = (   0.2500000   0.4375000   0.4375000), wk =   0.0117188
        k(  144) = (   0.2500000   0.4375000  -0.5000000), wk =   0.0117188
        k(  145) = (   0.2500000  -0.5000000  -0.5000000), wk =   0.0029297
        k(  146) = (   0.3125000   0.3125000   0.3125000), wk =   0.0039063
        k(  147) = (   0.3125000   0.3125000   0.3750000), wk =   0.0117188
        k(  148) = (   0.3125000   0.3125000   0.4375000), wk =   0.0117188
        k(  149) = (   0.3125000   0.3125000  -0.5000000), wk =   0.0058594
        k(  150) = (   0.3125000   0.3750000   0.3750000), wk =   0.0117188
        k(  151) = (   0.3125000   0.3750000   0.4375000), wk =   0.0234375
        k(  152) = (   0.3125000   0.3750000  -0.5000000), wk =   0.0117188
        k(  153) = (   0.3125000   0.4375000   0.4375000), wk =   0.0117188
        k(  154) = (   0.3125000   0.4375000  -0.5000000), wk =   0.0117188
        k(  155) = (   0.3125000  -0.5000000  -0.5000000), wk =   0.0029297
        k(  156) = (   0.3750000   0.3750000   0.3750000), wk =   0.0039063
        k(  157) = (   0.3750000   0.3750000   0.4375000), wk =   0.0117188
        k(  158) = (   0.3750000   0.3750000  -0.5000000), wk =   0.0058594
        k(  159) = (   0.3750000   0.4375000   0.4375000), wk =   0.0117188
        k(  160) = (   0.3750000   0.4375000  -0.5000000), wk =   0.0117188
        k(  161) = (   0.3750000  -0.5000000  -0.5000000), wk =   0.0029297
        k(  162) = (   0.4375000   0.4375000   0.4375000), wk =   0.0039063
        k(  163) = (   0.4375000   0.4375000  -0.5000000), wk =   0.0058594
        k(  164) = (   0.4375000  -0.5000000  -0.5000000), wk =   0.0029297
        k(  165) = (  -0.5000000  -0.5000000  -0.5000000), wk =   0.0004883

     Dense  grid:    32675 G-vectors     FFT dimensions: (  40,  40,  40)

     Smooth grid:    11513 G-vectors     FFT dimensions: (  30,  30,  30)

     Dynamical RAM for                 wfc:       0.84 MB

     Dynamical RAM for     wfc (w. buffer):     138.89 MB

     Dynamical RAM for           str. fact:       0.50 MB

     Dynamical RAM for           local pot:       0.00 MB

     Dynamical RAM for          nlocal pot:       1.59 MB

     Dynamical RAM for                qrad:       1.34 MB

     Dynamical RAM for          rho,v,vnew:       2.96 MB

     Dynamical RAM for               rhoin:       0.99 MB

     Dynamical RAM for            rho*nmix:       7.98 MB

     Dynamical RAM for           G-vectors:       1.96 MB

     Dynamical RAM for          h,s,v(r/c):       0.26 MB

     Dynamical RAM for          <psi|beta>:       0.04 MB

     Dynamical RAM for                 psi:       1.67 MB

     Dynamical RAM for                hpsi:       1.67 MB

     Dynamical RAM for                spsi:       1.67 MB

     Dynamical RAM for      wfcinit/wfcrot:       2.17 MB

     Dynamical RAM for           addusdens:      94.73 MB

     Dynamical RAM for          addusforce:      97.99 MB

     Dynamical RAM for         addusstress:     100.21 MB

     Estimated static dynamical RAM per process >     151.66 MB

     Estimated max dynamical RAM per process >     259.86 MB

     Initial potential from superposition of free atoms

     starting charge   61.99996, renormalised to   64.00000

     negative rho (up, down):  7.185E-01 0.000E+00
     Starting wfcs are   48 randomized atomic wfcs

     total cpu time spent up to now is        1.5 secs

     Self-consistent Calculation
[tb_dev] Currently allocated     6.99E+00 Mbytes, locked:    0 /  10
[tb_pin] Currently allocated     0.00E+00 Mbytes, locked:    0 /   0

     iteration #  1     ecut=    35.00 Ry     beta= 0.40
     Davidson diagonalization with overlap

---- Real-time Memory Report at c_bands before calling an iterative solver
          1733 MiB given to the printing process from OS
             0 MiB allocation reported by mallinfo(arena+hblkhd)
          8791 MiB available memory on the node where the printing process lives
     GPU memory used/free/total (MiB): 1070 / 23032 / 24102
------------------
     ethr =  1.00E-02,  avg # of iterations =  2.0

     negative rho (up, down):  6.738E-01 0.000E+00

     total cpu time spent up to now is        3.7 secs

     total energy              =    -841.82338150 Ry
     estimated scf accuracy    <       3.05721542 Ry
[tb_dev] Currently allocated     1.84E+02 Mbytes, locked:    0 /  15
[tb_pin] Currently allocated     5.87E-01 Mbytes, locked:    0 /   2

     iteration #  2     ecut=    35.00 Ry     beta= 0.40
     Davidson diagonalization with overlap

---- Real-time Memory Report at c_bands before calling an iterative solver
          1743 MiB given to the printing process from OS
             0 MiB allocation reported by mallinfo(arena+hblkhd)
          8768 MiB available memory on the node where the printing process lives
     GPU memory used/free/total (MiB): 1292 / 22810 / 24102
------------------
     ethr =  4.78E-03,  avg # of iterations =  2.0

     negative rho (up, down):  6.606E-01 0.000E+00

     total cpu time spent up to now is        6.1 secs

     total energy              =    -842.18035186 Ry
     estimated scf accuracy    <       0.10307798 Ry
[tb_dev] Currently allocated     1.84E+02 Mbytes, locked:    0 /  15
[tb_pin] Currently allocated     5.87E-01 Mbytes, locked:    0 /   2

     iteration #  3     ecut=    35.00 Ry     beta= 0.40
     Davidson diagonalization with overlap

---- Real-time Memory Report at c_bands before calling an iterative solver
          1744 MiB given to the printing process from OS
             0 MiB allocation reported by mallinfo(arena+hblkhd)
          8747 MiB available memory on the node where the printing process lives
     GPU memory used/free/total (MiB): 1282 / 22820 / 24102
------------------
     ethr =  1.61E-04,  avg # of iterations =  2.2

     negative rho (up, down):  6.553E-01 0.000E+00

     total cpu time spent up to now is        8.7 secs

     total energy              =    -842.20369725 Ry
     estimated scf accuracy    <       0.00535973 Ry
[tb_dev] Currently allocated     1.84E+02 Mbytes, locked:    0 /  15
[tb_pin] Currently allocated     5.87E-01 Mbytes, locked:    0 /   2

     iteration #  4     ecut=    35.00 Ry     beta= 0.40
     Davidson diagonalization with overlap

---- Real-time Memory Report at c_bands before calling an iterative solver
          1744 MiB given to the printing process from OS
             0 MiB allocation reported by mallinfo(arena+hblkhd)
          8734 MiB available memory on the node where the printing process lives
     GPU memory used/free/total (MiB): 1276 / 22826 / 24102
------------------
     ethr =  8.37E-06,  avg # of iterations =  2.1

     negative rho (up, down):  6.534E-01 0.000E+00

     total cpu time spent up to now is       11.6 secs

     total energy              =    -842.20404808 Ry
     estimated scf accuracy    <       0.00267615 Ry
[tb_dev] Currently allocated     1.84E+02 Mbytes, locked:    0 /  15
[tb_pin] Currently allocated     5.87E-01 Mbytes, locked:    0 /   2

     iteration #  5     ecut=    35.00 Ry     beta= 0.40
     Davidson diagonalization with overlap

---- Real-time Memory Report at c_bands before calling an iterative solver
          1745 MiB given to the printing process from OS
             0 MiB allocation reported by mallinfo(arena+hblkhd)
          8736 MiB available memory on the node where the printing process lives
     GPU memory used/free/total (MiB): 1276 / 22826 / 24102
------------------
     ethr =  4.18E-06,  avg # of iterations =  2.0

     negative rho (up, down):  6.533E-01 0.000E+00

     total cpu time spent up to now is       14.1 secs

     total energy              =    -842.20472768 Ry
     estimated scf accuracy    <       0.00005981 Ry
[tb_dev] Currently allocated     1.84E+02 Mbytes, locked:    0 /  15
[tb_pin] Currently allocated     5.87E-01 Mbytes, locked:    0 /   2

     iteration #  6     ecut=    35.00 Ry     beta= 0.40
     Davidson diagonalization with overlap

---- Real-time Memory Report at c_bands before calling an iterative solver
          1745 MiB given to the printing process from OS
             0 MiB allocation reported by mallinfo(arena+hblkhd)
          8736 MiB available memory on the node where the printing process lives
     GPU memory used/free/total (MiB): 1278 / 22824 / 24102
------------------
     ethr =  9.35E-08,  avg # of iterations =  2.0

     negative rho (up, down):  6.534E-01 0.000E+00

     total cpu time spent up to now is       16.5 secs

     total energy              =    -842.20469763 Ry
     estimated scf accuracy    <       0.00007618 Ry
[tb_dev] Currently allocated     1.84E+02 Mbytes, locked:    0 /  15
[tb_pin] Currently allocated     5.87E-01 Mbytes, locked:    0 /   2

     iteration #  7     ecut=    35.00 Ry     beta= 0.40
     Davidson diagonalization with overlap

---- Real-time Memory Report at c_bands before calling an iterative solver
          1746 MiB given to the printing process from OS
             0 MiB allocation reported by mallinfo(arena+hblkhd)
          8775 MiB available memory on the node where the printing process lives
     GPU memory used/free/total (MiB): 1278 / 22824 / 24102
------------------
     ethr =  9.35E-08,  avg # of iterations =  2.0

     negative rho (up, down):  6.534E-01 0.000E+00

     total cpu time spent up to now is       18.9 secs

     total energy              =    -842.20470849 Ry
     estimated scf accuracy    <       0.00000156 Ry
[tb_dev] Currently allocated     1.84E+02 Mbytes, locked:    0 /  15
[tb_pin] Currently allocated     5.87E-01 Mbytes, locked:    0 /   2

     iteration #  8     ecut=    35.00 Ry     beta= 0.40
     Davidson diagonalization with overlap

---- Real-time Memory Report at c_bands before calling an iterative solver
          1746 MiB given to the printing process from OS
             0 MiB allocation reported by mallinfo(arena+hblkhd)
          8777 MiB available memory on the node where the printing process lives
     GPU memory used/free/total (MiB): 1284 / 22818 / 24102
------------------
     ethr =  2.43E-09,  avg # of iterations =  2.2

     negative rho (up, down):  6.535E-01 0.000E+00

     total cpu time spent up to now is       21.6 secs

     total energy              =    -842.20470893 Ry
     estimated scf accuracy    <       0.00000004 Ry
[tb_dev] Currently allocated     1.84E+02 Mbytes, locked:    0 /  15
[tb_pin] Currently allocated     5.87E-01 Mbytes, locked:    0 /   2

     iteration #  9     ecut=    35.00 Ry     beta= 0.40
     Davidson diagonalization with overlap

---- Real-time Memory Report at c_bands before calling an iterative solver
          1746 MiB given to the printing process from OS
             0 MiB allocation reported by mallinfo(arena+hblkhd)
          8772 MiB available memory on the node where the printing process lives
     GPU memory used/free/total (MiB): 1278 / 22824 / 24102
------------------
     ethr =  6.09E-11,  avg # of iterations =  4.0

     negative rho (up, down):  6.535E-01 0.000E+00

     total cpu time spent up to now is       25.3 secs

     total energy              =    -842.20470898 Ry
     estimated scf accuracy    <          5.5E-09 Ry
[tb_dev] Currently allocated     1.84E+02 Mbytes, locked:    0 /  15
[tb_pin] Currently allocated     5.87E-01 Mbytes, locked:    0 /   2

     iteration # 10     ecut=    35.00 Ry     beta= 0.40
     Davidson diagonalization with overlap

---- Real-time Memory Report at c_bands before calling an iterative solver
          1747 MiB given to the printing process from OS
             0 MiB allocation reported by mallinfo(arena+hblkhd)
          8756 MiB available memory on the node where the printing process lives
     GPU memory used/free/total (MiB): 1284 / 22818 / 24102
------------------
     ethr =  8.55E-12,  avg # of iterations =  2.0

     negative rho (up, down):  6.535E-01 0.000E+00

     total cpu time spent up to now is       27.8 secs

     End of self-consistent calculation

          k = 0.0000 0.0000 0.0000 (  1419 PWs)   bands (ev):

   -30.9850 -30.9850 -30.9850 -30.7295 -30.7295 -30.7295 -30.7295 -30.7295
   -30.7295 -30.5598 -30.5598 -30.5598  11.8348  15.0224  15.0224  15.0224
    15.4735  15.4735  15.4735  18.2572  18.2572  18.2572  20.3890  20.3890
    21.9978  21.9978  21.9978  22.4598  22.4598  22.4598  22.4598  22.4598
    22.4598  23.7178  23.7178  23.7178  30.6596  30.6596

     occupation numbers 
     1.0000   1.0000   1.0000   1.0000   1.0000   1.0000   1.0000   1.0000
     1.0000   1.0000   1.0000   1.0000   1.0000   1.0000   1.0000   1.0000
     1.0000   1.0000   1.0000   1.0000   1.0000   1.0000   1.0000   1.0000
     0.3340   0.3340   0.3340   0.0000   0.0000   0.0000   0.0000   0.0000
     0.0000   0.0000   0.0000   0.0000   0.0000   0.0000

          k = 0.0000 0.0000 0.0625 (  1398 PWs)   bands (ev):

   -30.9826 -30.9826 -30.9811 -30.7319 -30.7319 -30.7296 -30.7296 -30.7278
   -30.7278 -30.5641 -30.5614 -30.5614  11.8873  15.0422  15.0610  15.0610
    15.4949  15.5059  15.5059  18.2225  18.2839  18.2839  20.3505  20.4027
    21.9398  21.9398  21.9803  22.0413  22.0413  22.3898  22.3898  22.4599
    22.4599  23.4343  24.1647  24.1647  30.5406  30.5406

     occupation numbers 
     1.0000   1.0000   1.0000   1.0000   1.0000   1.0000   1.0000   1.0000
     1.0000   1.0000   1.0000   1.0000   1.0000   1.0000   1.0000   1.0000
     1.0000   1.0000   1.0000   1.0000   1.0000   1.0000   1.0000   1.0000
     0.5751   0.5750   0.4018   0.1949   0.1949   0.0000   0.0000   0.0000
     0.0000   0.0000   0.0000   0.0000   0.0000   0.0000

          k = 0.0000 0.0000 0.1250 (  1418 PWs)   bands (ev):

   -30.9754 -30.9754 -30.9697 -30.7393 -30.7393 -30.7300 -30.7300 -30.7231
   -30.7231 -30.5768 -30.5663 -30.5663  12.0437  15.0977  15.1747  15.1747
    15.5586  15.6029  15.6029  18.1210  18.3638  18.3638  20.2378  20.4436
    21.3280  21.3280  21.7694  21.7694  21.9287  22.1905  22.1905  22.4603
    22.4603  22.7267  24.9620  24.9620  30.2478  30.2478

     occupation numbers 
     1.0000   1.0000   1.0000   1.0000   1.0000   1.0000   1.0000   1.0000
     1.0000   1.0000   1.0000   1.0000   1.0000   1.0000   1.0000   1.0000
     1.0000   1.0000   1.0000   1.0000   1.0000   1.0000   1.0000   1.0000
     1.0000   1.0000   1.0750   1.0750   0.6245   0.0122   0.0122   0.0000
     0.0000   0.0000   0.0000   0.0000   0.0000   0.0000

          k = 0.0000 0.0000 0.1875 (  1426 PWs)   bands (ev):

   -30.9638 -30.9638 -30.9509 -30.7513 -30.7513 -30.7305 -30.7305 -30.7153
   -30.7153 -30.5974 -30.5741 -30.5741  12.2999  15.1763  15.3568  15.3568
    15.6634  15.7641  15.7641  17.9604  18.4962  18.4962  20.0600  20.5104
    20.5947  20.5947  21.4985  21.4985  21.8350  21.8457  21.8888  21.8888
    22.4609  22.4609  25.8321  25.8321  29.8952  29.8952

     occupation numbers 
     1.0000   1.0000   1.0000   1.0000   1.0000   1.0000   1.0000   1.0000
     1.0000   1.0000   1.0000   1.0000   1.0000   1.0000   1.0000   1.0000
     1.0000   1.0000   1.0000   1.0000   1.0000   1.0000   1.0000   1.0000
     1.0000   1.0000   1.0030   1.0030   0.9738   0.9446   0.7944   0.7944
     0.0000   0.0000   0.0000   0.0000   0.0000   0.0000

          k = 0.0000 0.0000 0.2500 (  1438 PWs)   bands (ev):

   -30.9481 -30.9481 -30.9256 -30.7674 -30.7674 -30.7311 -30.7311 -30.7048
   -30.7048 -30.6251 -30.5848 -30.5848  12.6490  15.2531  15.5943  15.5943
    15.8073  15.9887  15.9887  17.7517  18.6801  18.6801  19.8320  19.8866
    19.8866  20.6015  20.9273  21.1511  21.1511  21.5180  21.5180  21.7357
    22.4616  22.4616  26.7249  26.7249  29.5635  29.5635

     occupation numbers 
     1.0000   1.0000   1.0000   1.0000   1.0000   1.0000   1.0000   1.0000
     1.0000   1.0000   1.0000   1.0000   1.0000   1.0000   1.0000   1.0000
     1.0000   1.0000   1.0000   1.0000   1.0000   1.0000   1.0000   1.0000
     1.0000   1.0000   1.0000   1.0000   1.0000   1.0047   1.0047   1.0832
     0.0000   0.0000   0.0000   0.0000   0.0000   0.0000

          k = 0.0000 0.0000 0.3125 (  1434 PWs)   bands (ev):

   -30.9290 -30.9290 -30.8944 -30.7869 -30.7869 -30.7317 -30.7317 -30.6920
   -30.6920 -30.6584 -30.5977 -30.5977  13.0788  15.2856  15.8649  15.8649
    15.9873  16.2757  16.2757  17.5082  18.9136  18.9136  19.2172  19.2172
    19.5762  20.1163  20.7141  20.7656  20.7656  21.1094  21.1094  21.6042
    22.4622  22.4622  27.6197  27.6197  29.2934  29.2934

     occupation numbers 
     1.0000   1.0000   1.0000   1.0000   1.0000   1.0000   1.0000   1.0000
     1.0000   1.0000   1.0000   1.0000   1.0000   1.0000   1.0000   1.0000
     1.0000   1.0000   1.0000   1.0000   1.0000   1.0000   1.0000   1.0000
     1.0000   1.0000   1.0000   1.0000   1.0000   1.0000   1.0000   1.0247
     0.0000   0.0000   0.0000   0.0000   0.0000   0.0000

          k = 0.0000 0.0000 0.3750 (  1450 PWs)   bands (ev):

   -30.9070 -30.9070 -30.8586 -30.8091 -30.8091 -30.7324 -30.7324 -30.6961
   -30.6774 -30.6774 -30.6125 -30.6125  13.5697  15.2125  16.1318  16.1318
    16.1994  16.6240  16.6240  17.2431  18.5932  18.5932  19.1942  19.1942
    19.3240  19.4949  20.3983  20.3983  20.6883  20.6883  20.8449  21.4575
    22.4628  22.4628  28.5002  28.5002  29.0999  29.0999

     occupation numbers 
     1.0000   1.0000   1.0000   1.0000   1.0000   1.0000   1.0000   1.0000
     1.0000   1.0000   1.0000   1.0000   1.0000   1.0000   1.0000   1.0000
     1.0000   1.0000   1.0000   1.0000   1.0000   1.0000   1.0000   1.0000
     1.0000   1.0000   1.0000   1.0000   1.0000   1.0000   1.0000   1.0011
     0.0000   0.0000   0.0000   0.0000   0.0000   0.0000

          k = 0.0000 0.0000 0.4375 (  1438 PWs)   bands (ev):

   -30.8831 -30.8831 -30.8332 -30.8332 -30.8193 -30.7364 -30.7327 -30.7327
   -30.6615 -30.6615 -30.6284 -30.6284  14.0888  14.9782  16.3384  16.3384
    16.4384  16.9691  17.0319  17.0319  18.0190  18.0190  19.1203  19.1317
    19.5183  19.5183  20.1233  20.1233  20.2740  20.2740  20.9899  21.3020
    22.4632  22.4632  28.9852  28.9852  29.3500  29.3500

     occupation numbers 
     1.0000   1.0000   1.0000   1.0000   1.0000   1.0000   1.0000   1.0000
     1.0000   1.0000   1.0000   1.0000   1.0000   1.0000   1.0000   1.0000
     1.0000   1.0000   1.0000   1.0000   1.0000   1.0000   1.0000   1.0000
     1.0000   1.0000   1.0000   1.0000   1.0000   1.0000   1.0000   1.0000
     0.0000   0.0000   0.0000   0.0000   0.0000   0.0000

          k = 0.0000 0.0000-0.5000 (  1422 PWs)   bands (ev):

   -30.8581 -30.8581 -30.8581 -30.8581 -30.7780 -30.7780 -30.7328 -30.7328
   -30.6450 -30.6450 -30.6450 -30.6450  14.5828  14.5828  16.4183  16.4183
    16.6976  16.6976  17.4976  17.4976  17.4976  17.4976  19.0289  19.0289
    19.8806  19.8806  19.8806  19.8806  20.0192  20.0192  21.1441  21.1441
    22.4633  22.4633  28.9474  28.9474  30.1519  30.1519

     occupation numbers 
     1.0000   1.0000   1.0000   1.0000   1.0000   1.0000   1.0000   1.0000
     1.0000   1.0000   1.0000   1.0000   1.0000   1.0000   1.0000   1.0000
     1.0000   1.0000   1.0000   1.0000   1.0000   1.0000   1.0000   1.0000
     1.0000   1.0000   1.0000   1.0000   1.0000   1.0000   1.0000   1.0000
     0.0000   0.0000   0.0000   0.0000   0.0000   0.0000

          k = 0.0000 0.0625 0.0625 (  1416 PWs)   bands (ev):

   -30.9802 -30.9788 -30.9788 -30.7370 -30.7303 -30.7303 -30.7279 -30.7279
   -30.7271 -30.5707 -30.5630 -30.5607  11.9395  15.0810  15.0810  15.0972
    15.5270  15.5270  15.5398  18.2047  18.2943  18.3093  20.3388  20.3915
    21.7859  21.8629  21.8629  21.8844  22.0036  22.0036  22.3898  22.3898
    22.4169  23.9063  23.9063  24.4917  30.4102  30.8950

     occupation numbers 
     1.0000   1.0000   1.0000   1.0000   1.0000   1.0000   1.0000   1.0000
     1.0000   1.0000   1.0000   1.0000   1.0000   1.0000   1.0000   1.0000
     1.0000   1.0000   1.0000   1.0000   1.0000   1.0000   1.0000   1.0000
     1.0614   0.8906   0.8906   0.8118   0.3132   0.3132   0.0000   0.0000
     0.0000   0.0000   0.0000   0.0000   0.0000   0.0000

          k = 0.0000 0.0625 0.1250 (  1423 PWs)   bands (ev):

   -30.9731 -30.9721 -30.9677 -30.7461 -30.7377 -30.7281 -30.7255 -30.7255
   -30.7230 -30.5850 -30.5679 -30.5638  12.0947  15.1370  15.1953  15.2038
    15.5900  15.6233  15.6411  18.1134  18.3658  18.3850  20.2388  20.4253
    21.1966  21.1988  21.5947  21.7211  21.7828  21.9251  22.1903  22.3900
    22.3928  23.2936  24.6969  25.1904  30.0904  30.5855

     occupation numbers 
     1.0000   1.0000   1.0000   1.0000   1.0000   1.0000   1.0000   1.0000
     1.0000   1.0000   1.0000   1.0000   1.0000   1.0000   1.0000   1.0000
     1.0000   1.0000   1.0000   1.0000   1.0000   1.0000   1.0000   1.0000
     1.0000   1.0000   1.0212   1.0806   1.0646   0.6402   0.0123   0.0000
     0.0000   0.0000   0.0000   0.0000   0.0000   0.0000

          k = 0.0000 0.0625 0.1875 (  1428 PWs)   bands (ev):

   -30.9615 -30.9610 -30.9496 -30.7586 -30.7496 -30.7284 -30.7251 -30.7177
   -30.7149 -30.6060 -30.5759 -30.5709  12.3492  15.2165  15.3751  15.3784
    15.6937  15.7833  15.8084  17.9577  18.4962  18.5094  20.0676  20.4738
    20.4957  20.5202  21.1292  21.4603  21.5173  21.8015  21.8883  22.3864
    22.3901  22.6106  25.5343  26.0118  29.7058  30.2271

     occupation numbers 
     1.0000   1.0000   1.0000   1.0000   1.0000   1.0000   1.0000   1.0000
     1.0000   1.0000   1.0000   1.0000   1.0000   1.0000   1.0000   1.0000
     1.0000   1.0000   1.0000   1.0000   1.0000   1.0000   1.0000   1.0000
     1.0000   1.0000   1.0000   1.0011   1.0047   1.0417   0.7963   0.0000
     0.0000   0.0000   0.0000   0.0000   0.0000   0.0000

          k = 0.0000 0.0625 0.2500 (  1429 PWs)   bands (ev):

   -30.9462 -30.9458 -30.9250 -30.7745 -30.7656 -30.7287 -30.7254 -30.7072
   -30.7041 -30.6333 -30.5866 -30.5812  12.6959  15.2943  15.6009  15.6175
    15.8360  16.0062  16.0378  17.7533  18.6786  18.6793  19.7754  19.8428
    19.8502  20.5080  20.5933  21.1241  21.1781  21.5173  21.5841  22.0677
    22.3850  22.3902  26.3660  26.8778  29.3425  29.9156

     occupation numbers 
     1.0000   1.0000   1.0000   1.0000   1.0000   1.0000   1.0000   1.0000
     1.0000   1.0000   1.0000   1.0000   1.0000   1.0000   1.0000   1.0000
     1.0000   1.0000   1.0000   1.0000   1.0000   1.0000   1.0000   1.0000
     1.0000   1.0000   1.0000   1.0000   1.0000   1.0047   1.0177   0.1327
     0.0000   0.0000   0.0000   0.0000   0.0000   0.0000

          k = 0.0000 0.0625 0.3125 (  1436 PWs)   bands (ev):

   -30.9280 -30.9267 -30.8949 -30.7934 -30.7851 -30.7288 -30.7261 -30.6943
   -30.6909 -30.6660 -30.5996 -30.5942  13.1229  15.3274  15.8646  15.8907
    16.0140  16.2910  16.3223  17.5140  18.8787  18.9125  19.1177  19.1922
    19.6216  19.8540  20.7147  20.7497  20.7993  21.1084  21.2102  21.7523
    22.3853  22.3901  27.1478  27.7564  29.0401  29.7179

     occupation numbers 
     1.0000   1.0000   1.0000   1.0000   1.0000   1.0000   1.0000   1.0000
     1.0000   1.0000   1.0000   1.0000   1.0000   1.0000   1.0000   1.0000
     1.0000   1.0000   1.0000   1.0000   1.0000   1.0000   1.0000   1.0000
     1.0000   1.0000   1.0000   1.0000   1.0000   1.0000   1.0000   1.0820
     0.0000   0.0000   0.0000   0.0000   0.0000   0.0000

          k = 0.0000 0.0625 0.3750 (  1447 PWs)   bands (ev):

   -30.9073 -30.9049 -30.8602 -30.8146 -30.8073 -30.7290 -30.7270 -30.7026
   -30.6796 -30.6758 -30.6144 -30.6091  13.6109  15.2538  16.1360  16.1608
    16.2236  16.6363  16.6528  17.2531  18.5083  18.5809  19.0356  19.1930
    19.3167  19.4841  20.3932  20.4339  20.6871  20.7740  20.8561  21.5450
    22.3862  22.3898  27.8054  28.6268  28.8074  29.7076

     occupation numbers 
     1.0000   1.0000   1.0000   1.0000   1.0000   1.0000   1.0000   1.0000
     1.0000   1.0000   1.0000   1.0000   1.0000   1.0000   1.0000   1.0000
     1.0000   1.0000   1.0000   1.0000   1.0000   1.0000   1.0000   1.0000
     1.0000   1.0000   1.0000   1.0000   1.0000   1.0000   1.0000   1.0084
     0.0000   0.0000   0.0000   0.0000   0.0000   0.0000

          k = 0.0000 0.0625 0.4375 (  1437 PWs)   bands (ev):

   -30.8847 -30.8810 -30.8375 -30.8312 -30.8222 -30.7419 -30.7287 -30.7277
   -30.6636 -30.6594 -30.6304 -30.6254  14.1277  15.0177  16.3570  16.3702
    16.4596  16.9832  17.0281  17.0403  17.9534  18.0156  18.9876  18.9994
    19.5170  19.6398  20.1300  20.1541  20.2728  20.3513  21.0137  21.3603
    22.3874  22.3893  28.2412  28.6310  29.4704  29.9680

     occupation numbers 
     1.0000   1.0000   1.0000   1.0000   1.0000   1.0000   1.0000   1.0000
     1.0000   1.0000   1.0000   1.0000   1.0000   1.0000   1.0000   1.0000
     1.0000   1.0000   1.0000   1.0000   1.0000   1.0000   1.0000   1.0000
     1.0000   1.0000   1.0000   1.0000   1.0000   1.0000   1.0000   1.0001
     0.0000   0.0000   0.0000   0.0000   0.0000   0.0000

          k = 0.0000 0.0625-0.5000 (  1440 PWs)   bands (ev):

   -30.8612 -30.8612 -30.8562 -30.8562 -30.7822 -30.7822 -30.7284 -30.7284
   -30.6470 -30.6470 -30.6424 -30.6424  14.6210  14.6210  16.4482  16.4482
    16.7155  16.7155  17.4591  17.4591  17.5009  17.5009  18.9156  18.9156
    19.8793  19.8793  19.9648  19.9648  20.0389  20.0389  21.1830  21.1830
    22.3884  22.3884  28.4721  28.4721  30.2688  30.2694

     occupation numbers 
     1.0000   1.0000   1.0000   1.0000   1.0000   1.0000   1.0000   1.0000
     1.0000   1.0000   1.0000   1.0000   1.0000   1.0000   1.0000   1.0000
     1.0000   1.0000   1.0000   1.0000   1.0000   1.0000   1.0000   1.0000
     1.0000   1.0000   1.0000   1.0000   1.0000   1.0000   1.0000   1.0000
     0.0000   0.0000   0.0000   0.0000   0.0000   0.0000

          k = 0.0000 0.1250 0.1250 (  1422 PWs)   bands (ev):

   -30.9660 -30.9621 -30.9621 -30.7581 -30.7328 -30.7328 -30.7227 -30.7227
   -30.7203 -30.6019 -30.5729 -30.5635  12.2468  15.2531  15.2531  15.2909
    15.6843  15.6843  15.7537  18.0604  18.4044  18.4477  20.1999  20.4153
    20.8229  20.8748  20.8748  21.5776  21.7663  21.7663  22.1898  22.1898
    22.2901  24.0744  24.0744  25.7543  29.7070  31.4214

     occupation numbers 
     1.0000   1.0000   1.0000   1.0000   1.0000   1.0000   1.0000   1.0000
     1.0000   1.0000   1.0000   1.0000   1.0000   1.0000   1.0000   1.0000
     1.0000   1.0000   1.0000   1.0000   1.0000   1.0000   1.0000   1.0000
     1.0000   1.0000   1.0000   1.0158   1.0768   1.0768   0.0125   0.0125
     0.0009   0.0000   0.0000   0.0000   0.0000   0.0000

          k = 0.0000 0.1250 0.1875 (  1432 PWs)   bands (ev):

   -30.9545 -30.9529 -30.9458 -30.7726 -30.7446 -30.7248 -30.7222 -30.7167
   -30.7139 -30.6248 -30.5810 -30.5676  12.4960  15.3353  15.4344  15.4393
    15.7845  15.8407  15.9346  17.9342  18.5135  18.5485  20.0677  20.1648
    20.2952  20.4219  20.4765  21.3454  21.5260  21.6730  21.8870  22.1888
    22.2287  23.3600  24.8590  26.4858  29.2490  31.0022

     occupation numbers 
     1.0000   1.0000   1.0000   1.0000   1.0000   1.0000   1.0000   1.0000
     1.0000   1.0000   1.0000   1.0000   1.0000   1.0000   1.0000   1.0000
     1.0000   1.0000   1.0000   1.0000   1.0000   1.0000   1.0000   1.0000
     1.0000   1.0000   1.0000   1.0000   1.0057   1.0589   0.8017   0.0127
     0.0048   0.0000   0.0000   0.0000   0.0000   0.0000

          k = 0.0000 0.1250 0.2500 (  1440 PWs)   bands (ev):

   -30.9404 -30.9390 -30.9236 -30.7893 -30.7604 -30.7215 -30.7146 -30.7142
   -30.7021 -30.6526 -30.5918 -30.5759  12.8355  15.4163  15.6316  15.6835
    15.9220  16.0585  16.1721  17.7499  18.6778  18.6867  19.4907  19.7079
    19.8825  19.8930  20.5893  21.0411  21.2135  21.4857  21.5152  22.1875
    22.1991  22.7156  25.6114  27.2951  28.8154  30.6537

     occupation numbers 
     1.0000   1.0000   1.0000   1.0000   1.0000   1.0000   1.0000   1.0000
     1.0000   1.0000   1.0000   1.0000   1.0000   1.0000   1.0000   1.0000
     1.0000   1.0000   1.0000   1.0000   1.0000   1.0000   1.0000   1.0000
     1.0000   1.0000   1.0000   1.0000   1.0000   1.0022   1.0044   0.0131
     0.0100   0.0000   0.0000   0.0000   0.0000   0.0000

          k = 0.0000 0.1250 0.3125 (  1437 PWs)   bands (ev):

   -30.9252 -30.9200 -30.8964 -30.8077 -30.7797 -30.7205 -30.7139 -30.7011
   -30.6878 -30.6844 -30.6050 -30.5875  13.2541  15.4514  15.8757  15.9642
    16.0936  16.3364  16.4479  17.5269  18.8054  18.8619  18.9151  19.1147
    19.3659  19.7072  20.6983  20.7367  20.8576  21.1058  21.1941  22.1856
    22.1857  22.2152  26.2956  28.1370  28.4475  30.4394

     occupation numbers 
     1.0000   1.0000   1.0000   1.0000   1.0000   1.0000   1.0000   1.0000
     1.0000   1.0000   1.0000   1.0000   1.0000   1.0000   1.0000   1.0000
     1.0000   1.0000   1.0000   1.0000   1.0000   1.0000   1.0000   1.0000
     1.0000   1.0000   1.0000   1.0000   1.0000   1.0000   1.0000   0.0137
     0.0137   0.0067   0.0000   0.0000   0.0000   0.0000

          k = 0.0000 0.1250 0.3750 (  1436 PWs)   bands (ev):

   -30.9077 -30.8983 -30.8649 -30.8273 -30.8017 -30.7194 -30.7193 -30.7141
   -30.6862 -30.6715 -30.6200 -30.6021  13.7332  15.3758  16.1499  16.2447
    16.2955  16.6725  16.7372  17.2805  18.2870  18.5420  18.8529  18.9442
    19.1929  19.6503  20.3723  20.5043  20.6842  20.8236  20.9117  21.8524
    22.1802  22.1837  26.8713  28.1478  28.9836  30.4002

     occupation numbers 
     1.0000   1.0000   1.0000   1.0000   1.0000   1.0000   1.0000   1.0000
     1.0000   1.0000   1.0000   1.0000   1.0000   1.0000   1.0000   1.0000
     1.0000   1.0000   1.0000   1.0000   1.0000   1.0000   1.0000   1.0000
     1.0000   1.0000   1.0000   1.0000   1.0000   1.0000   1.0000   0.9244
     0.0155   0.0143   0.0000   0.0000   0.0000   0.0000

          k = 0.0000 0.1250 0.4375 (  1448 PWs)   bands (ev):

   -30.8886 -30.8748 -30.8478 -30.8302 -30.8255 -30.7562 -30.7179 -30.7152
   -30.6701 -30.6541 -30.6363 -30.6185  14.2428  15.1338  16.4058  16.4639
    16.5224  17.0237  17.0260  17.0647  17.7779  18.0043  18.7151  18.7744
    19.5154  19.7956  20.1407  20.2195  20.2699  20.4356  21.1097  21.5708
    22.1789  22.1816  27.3121  27.8918  29.8125  30.5486

     occupation numbers 
     1.0000   1.0000   1.0000   1.0000   1.0000   1.0000   1.0000   1.0000
     1.0000   1.0000   1.0000   1.0000   1.0000   1.0000   1.0000   1.0000
     1.0000   1.0000   1.0000   1.0000   1.0000   1.0000   1.0000   1.0000
     1.0000   1.0000   1.0000   1.0000   1.0000   1.0000   1.0000   1.0140
     0.0160   0.0150   0.0000   0.0000   0.0000   0.0000

          k = 0.0000 0.1250-0.5000 (  1446 PWs)   bands (ev):

   -30.8684 -30.8684 -30.8502 -30.8502 -30.7936 -30.7936 -30.7165 -30.7165
   -30.6532 -30.6532 -30.6361 -30.6361  14.7335  14.7335  16.5355  16.5355
    16.7678  16.7678  17.3549  17.3549  17.5099  17.5100  18.6850  18.6850
    19.8769  19.8769  20.0796  20.0796  20.0814  20.0814  21.3285  21.3285
    22.1797  22.1797  27.6338  27.6338  30.6030  30.6035

     occupation numbers 
     1.0000   1.0000   1.0000   1.0000   1.0000   1.0000   1.0000   1.0000
     1.0000   1.0000   1.0000   1.0000   1.0000   1.0000   1.0000   1.0000
     1.0000   1.0000   1.0000   1.0000   1.0000   1.0000   1.0000   1.0000
     1.0000   1.0000   1.0000   1.0000   1.0000   1.0000   1.0000   1.0000
     0.0157   0.0157   0.0000   0.0000   0.0000   0.0000

          k = 0.0000 0.1875 0.1875 (  1428 PWs)   bands (ev):

   -30.9431 -30.9394 -30.9394 -30.7889 -30.7365 -30.7365 -30.7122 -30.7122
   -30.7094 -30.6490 -30.5892 -30.5683  12.7365  15.5266  15.5266  15.5421
    15.9351  15.9351  16.1275  17.8586  18.5846  18.6102  19.7478  19.7478
    19.9335  20.0036  20.5183  21.1548  21.4648  21.4648  21.8848  21.8848
    22.0844  24.0944  24.0944  27.1404  28.7076  31.9337

     occupation numbers 
     1.0000   1.0000   1.0000   1.0000   1.0000   1.0000   1.0000   1.0000
     1.0000   1.0000   1.0000   1.0000   1.0000   1.0000   1.0000   1.0000
     1.0000   1.0000   1.0000   1.0000   1.0000   1.0000   1.0000   1.0000
     1.0000   1.0000   1.0000   1.0000   1.0013   1.0013   0.8103   0.8103
     0.1016   0.0000   0.0000   0.0000   0.0000   0.0000

          k = 0.0000 0.1875 0.2500 (  1438 PWs)   bands (ev):

[...]

     occupation numbers 
     1.0000   1.0000   1.0000   1.0000   1.0000   1.0000   1.0000   1.0000
     1.0000   1.0000   1.0000   1.0000   1.0000   1.0000   1.0000   1.0000
     1.0000   1.0000   1.0000   1.0000   1.0000   1.0000   1.0000   1.0000
     1.0000   1.0000   1.0000   1.0000   1.0207   1.0207   1.0786   1.0786
     0.0000   0.0000   0.0000   0.0000   0.0000   0.0000

          k = 0.3125-0.5000-0.5000 (  1452 PWs)   bands (ev):

   -30.9803 -30.9803 -30.9803 -30.9803 -30.6540 -30.6540 -30.6540 -30.6540
   -30.6257 -30.6257 -30.6257 -30.6257  15.0341  15.0341  15.0341  15.0341
    18.0502  18.0502  18.0502  18.0502  18.4451  18.4451  18.4451  18.4451
    19.8224  19.8224  19.8224  19.8224  21.6271  21.6271  21.6271  21.6271
    23.2147  23.2147  23.2147  23.2147  28.6295  28.6295

     occupation numbers 
     1.0000   1.0000   1.0000   1.0000   1.0000   1.0000   1.0000   1.0000
     1.0000   1.0000   1.0000   1.0000   1.0000   1.0000   1.0000   1.0000
     1.0000   1.0000   1.0000   1.0000   1.0000   1.0000   1.0000   1.0000
     1.0000   1.0000   1.0000   1.0000   1.0346   1.0346   1.0346   1.0346
     0.0000   0.0000   0.0000   0.0000   0.0000   0.0000

          k = 0.3750 0.3750 0.3750 (  1448 PWs)   bands (ev):

   -30.9813 -30.9813 -30.9813 -30.9440 -30.6655 -30.6655 -30.6655 -30.6409
   -30.6409 -30.6409 -30.6160 -30.6160  14.6960  15.2179  15.2179  15.2179
    17.8410  17.8410  17.8410  18.3560  18.3560  18.6357  18.6357  18.6357
    19.4534  19.4534  19.4534  19.5057  21.4985  21.4985  22.0575  22.0575
    22.0575  23.8960  23.8960  23.8960  28.0081  28.0081

     occupation numbers 
     1.0000   1.0000   1.0000   1.0000   1.0000   1.0000   1.0000   1.0000
     1.0000   1.0000   1.0000   1.0000   1.0000   1.0000   1.0000   1.0000
     1.0000   1.0000   1.0000   1.0000   1.0000   1.0000   1.0000   1.0000
     1.0000   1.0000   1.0000   1.0000   1.0030   1.0030   0.1547   0.1547
     0.1547   0.0000   0.0000   0.0000   0.0000   0.0000

          k = 0.3750 0.3750 0.4375 (  1453 PWs)   bands (ev):

   -30.9895 -30.9895 -30.9811 -30.9620 -30.6613 -30.6613 -30.6445 -30.6370
   -30.6370 -30.6348 -30.6221 -30.6193  14.7590  15.0224  15.1419  15.1419
    17.8923  17.8923  18.0139  18.2793  18.3464  18.4883  18.5378  18.5378
    19.6827  19.7831  19.7831  19.8129  21.6791  21.7499  21.9964  21.9964
    22.0393  22.9884  23.9366  23.9366  27.6726  27.6726

     occupation numbers 
     1.0000   1.0000   1.0000   1.0000   1.0000   1.0000   1.0000   1.0000
     1.0000   1.0000   1.0000   1.0000   1.0000   1.0000   1.0000   1.0000
     1.0000   1.0000   1.0000   1.0000   1.0000   1.0000   1.0000   1.0000
     1.0000   1.0000   1.0000   1.0000   1.0622   1.0825   0.3394   0.3394
     0.2002   0.0000   0.0000   0.0000   0.0000   0.0000

          k = 0.3750 0.3750-0.5000 (  1440 PWs)   bands (ev):

   -30.9922 -30.9922 -30.9746 -30.9746 -30.6601 -30.6601 -30.6353 -30.6353
   -30.6288 -30.6288 -30.6284 -30.6284  14.8682  14.8682  15.1164  15.1164
    17.9107  17.9107  18.1638  18.1638  18.3910  18.3910  18.5043  18.5043
    19.8381  19.8381  19.9143  19.9143  21.9344  21.9344  21.9528  21.9528
    22.2095  22.2095  23.9549  23.9549  27.5596  27.5596

     occupation numbers 
     1.0000   1.0000   1.0000   1.0000   1.0000   1.0000   1.0000   1.0000
     1.0000   1.0000   1.0000   1.0000   1.0000   1.0000   1.0000   1.0000
     1.0000   1.0000   1.0000   1.0000   1.0000   1.0000   1.0000   1.0000
     1.0000   1.0000   1.0000   1.0000   0.5992   0.5992   0.5179   0.5179
     0.0077   0.0077   0.0000   0.0000   0.0000   0.0000

          k = 0.3750 0.4375 0.4375 (  1442 PWs)   bands (ev):

   -30.9961 -30.9919 -30.9919 -30.9777 -30.6520 -30.6439 -30.6439 -30.6327
   -30.6312 -30.6312 -30.6262 -30.6200  14.7754  14.9682  14.9682  15.0281
    17.9826  18.0423  18.0423  18.2575  18.2902  18.4033  18.4033  18.4260
    20.0922  20.0922  20.1304  20.2345  21.6776  21.9716  21.9833  21.9833
    22.0305  23.1324  23.1324  23.6477  27.5880  28.0759

     occupation numbers 
     1.0000   1.0000   1.0000   1.0000   1.0000   1.0000   1.0000   1.0000
     1.0000   1.0000   1.0000   1.0000   1.0000   1.0000   1.0000   1.0000
     1.0000   1.0000   1.0000   1.0000   1.0000   1.0000   1.0000   1.0000
     1.0000   1.0000   1.0000   1.0000   1.0614   0.4377   0.3899   0.3899
     0.2253   0.0000   0.0000   0.0000   0.0000   0.0000

          k = 0.3750 0.4375-0.5000 (  1442 PWs)   bands (ev):

   -30.9970 -30.9970 -30.9879 -30.9879 -30.6468 -30.6468 -30.6330 -30.6330
   -30.6301 -30.6301 -30.6246 -30.6246  14.8453  14.8453  14.9700  14.9700
    18.0357  18.0357  18.1680  18.1680  18.3191  18.3191  18.3790  18.3790
    20.2676  20.2676  20.2975  20.2975  21.8481  21.8481  21.9315  21.9315
    22.4589  22.4589  23.3662  23.3662  27.7383  27.7383

     occupation numbers 
     1.0000   1.0000   1.0000   1.0000   1.0000   1.0000   1.0000   1.0000
     1.0000   1.0000   1.0000   1.0000   1.0000   1.0000   1.0000   1.0000
     1.0000   1.0000   1.0000   1.0000   1.0000   1.0000   1.0000   1.0000
     1.0000   1.0000   1.0000   1.0000   0.9376   0.9376   0.6120   0.6120
     0.0000   0.0000   0.0000   0.0000   0.0000   0.0000

          k = 0.3750-0.5000-0.5000 (  1440 PWs)   bands (ev):

   -30.9955 -30.9955 -30.9955 -30.9955 -30.6385 -30.6385 -30.6385 -30.6385
   -30.6256 -30.6256 -30.6256 -30.6256  14.8792  14.8792  14.8792  14.8792
    18.1294  18.1294  18.1294  18.1294  18.3108  18.3108  18.3108  18.3108
    20.4531  20.4531  20.4531  20.4531  21.8404  21.8404  21.8404  21.8404
    22.8481  22.8481  22.8481  22.8481  28.1034  28.1034

     occupation numbers 
     1.0000   1.0000   1.0000   1.0000   1.0000   1.0000   1.0000   1.0000
     1.0000   1.0000   1.0000   1.0000   1.0000   1.0000   1.0000   1.0000
     1.0000   1.0000   1.0000   1.0000   1.0000   1.0000   1.0000   1.0000
     1.0000   1.0000   1.0000   1.0000   0.9594   0.9594   0.9594   0.9594
     0.0000   0.0000   0.0000   0.0000   0.0000   0.0000

          k = 0.4375 0.4375 0.4375 (  1430 PWs)   bands (ev):

   -31.0010 -31.0010 -31.0010 -30.9915 -30.6362 -30.6362 -30.6362 -30.6296
   -30.6296 -30.6296 -30.6231 -30.6231  14.7504  14.8776  14.8776  14.8776
    18.1009  18.1009  18.1009  18.2425  18.2425  18.3114  18.3114  18.3115
    20.5505  20.5505  20.5505  20.8031  21.8791  21.8791  22.0316  22.0316
    22.0316  22.9235  22.9235  22.9235  27.7558  27.7558

     occupation numbers 
     1.0000   1.0000   1.0000   1.0000   1.0000   1.0000   1.0000   1.0000
     1.0000   1.0000   1.0000   1.0000   1.0000   1.0000   1.0000   1.0000
     1.0000   1.0000   1.0000   1.0000   1.0000   1.0000   1.0000   1.0000
     1.0000   1.0000   1.0000   1.0000   0.8321   0.8321   0.2219   0.2219
     0.2219   0.0000   0.0000   0.0000   0.0000   0.0000

          k = 0.4375 0.4375-0.5000 (  1444 PWs)   bands (ev):

   -31.0042 -31.0042 -30.9995 -30.9995 -30.6345 -30.6345 -30.6281 -30.6281
   -30.6264 -30.6264 -30.6264 -30.6264  14.7845  14.7845  14.8472  14.8472
    18.1246  18.1246  18.1899  18.1899  18.2497  18.2497  18.2772  18.2772
    20.7554  20.7554  20.8705  20.8705  22.0002  22.0002  22.0050  22.0050
    22.2214  22.2214  22.8452  22.8452  27.6498  27.6498

     occupation numbers 
     1.0000   1.0000   1.0000   1.0000   1.0000   1.0000   1.0000   1.0000
     1.0000   1.0000   1.0000   1.0000   1.0000   1.0000   1.0000   1.0000
     1.0000   1.0000   1.0000   1.0000   1.0000   1.0000   1.0000   1.0000
     1.0000   1.0000   1.0000   1.0000   0.3254   0.3254   0.3082   0.3082
     0.0057   0.0057   0.0000   0.0000   0.0000   0.0000

          k = 0.4375-0.5000-0.5000 (  1448 PWs)   bands (ev):

   -31.0051 -31.0051 -31.0051 -31.0050 -30.6289 -30.6289 -30.6289 -30.6289
   -30.6256 -30.6256 -30.6256 -30.6256  14.7850  14.7850  14.7850  14.7850
    18.1826  18.1826  18.1826  18.1826  18.2288  18.2289  18.2289  18.2289
    21.0720  21.0720  21.0720  21.0720  21.9761  21.9761  21.9761  21.9761
    22.3871  22.3871  22.3871  22.3871  27.7879  27.7879

     occupation numbers 
     1.0000   1.0000   1.0000   1.0000   1.0000   1.0000   1.0000   1.0000
     1.0000   1.0000   1.0000   1.0000   1.0000   1.0000   1.0000   1.0000
     1.0000   1.0000   1.0000   1.0000   1.0000   1.0000   1.0000   1.0000
     1.0000   1.0000   1.0000   1.0000   0.4190   0.4190   0.4190   0.4190
     0.0000   0.0000   0.0000   0.0000   0.0000   0.0000

          k =-0.5000-0.5000-0.5000 (  1472 PWs)   bands (ev):

   -31.0083 -31.0083 -31.0083 -31.0083 -30.6257 -30.6257 -30.6257 -30.6256
   -30.6256 -30.6256 -30.6256 -30.6256  14.7533  14.7533  14.7533  14.7533
    18.2013  18.2013  18.2013  18.2013  18.2013  18.2013  18.2013  18.2013
    21.4880  21.4880  21.4880  21.4880  22.0227  22.0227  22.0227  22.0227
    22.0227  22.0227  22.0227  22.0227  27.6837  27.6837

     occupation numbers 
     1.0000   1.0000   1.0000   1.0000   1.0000   1.0000   1.0000   1.0000
     1.0000   1.0000   1.0000   1.0000   1.0000   1.0000   1.0000   1.0000
     1.0000   1.0000   1.0000   1.0000   1.0000   1.0000   1.0000   1.0000
     1.0023   1.0023   1.0023   1.0023   0.2491   0.2491   0.2491   0.2491
     0.2491   0.2490   0.2490   0.2490   0.0000   0.0000

     the Fermi energy is    21.9806 ev

!    total energy              =    -842.20470901 Ry
     estimated scf accuracy    <          1.5E-10 Ry
     smearing contrib. (-TS)   =      -0.00056509 Ry
     internal energy E=F+TS    =    -842.20414392 Ry

     The total energy is F=E-TS. E is the sum of the following terms:
     one-electron contribution =     -84.11454063 Ry
     hartree contribution      =      99.11705607 Ry
     xc contribution           =    -226.63979810 Ry
     ewald contribution        =    -630.56686126 Ry

     convergence has been achieved in  10 iterations

     negative rho (up, down):  6.535E-01 0.000E+00

     Forces acting on atoms (cartesian axes, Ry/au):

     atom    1 type  1   force =     0.00000000    0.00000000    0.00000000
     atom    2 type  1   force =     0.00000000    0.00000000    0.00000000
     atom    3 type  1   force =     0.00000000    0.00000000    0.00000000
     atom    4 type  1   force =     0.00000000    0.00000000    0.00000000
     The non-local contrib.  to forces
     atom    1 type  1   force =     0.00000000    0.00000000    0.00000000
     atom    2 type  1   force =     0.00000000    0.00000000    0.00000000
     atom    3 type  1   force =     0.00000000    0.00000000    0.00000000
     atom    4 type  1   force =     0.00000000    0.00000000    0.00000000
     The ionic contribution  to forces
     atom    1 type  1   force =    -0.00000000   -0.00000000   -0.00000000
     atom    2 type  1   force =    -0.00000000    0.00000000    0.00000000
     atom    3 type  1   force =     0.00000000   -0.00000000    0.00000000
     atom    4 type  1   force =     0.00000000    0.00000000   -0.00000000
     The local contribution  to forces
     atom    1 type  1   force =    -0.00000000   -0.00000000   -0.00000000
     atom    2 type  1   force =    -0.00000000    0.00000000    0.00000000
     atom    3 type  1   force =     0.00000000   -0.00000000    0.00000000
     atom    4 type  1   force =     0.00000000    0.00000000   -0.00000000
     The core correction contribution to forces
     atom    1 type  1   force =    -0.00000000   -0.00000000   -0.00000000
     atom    2 type  1   force =    -0.00000000   -0.00000000   -0.00000000
     atom    3 type  1   force =    -0.00000000   -0.00000000   -0.00000000
     atom    4 type  1   force =    -0.00000000   -0.00000000   -0.00000000
     The Hubbard contrib.    to forces
     atom    1 type  1   force =     0.00000000    0.00000000    0.00000000
     atom    2 type  1   force =     0.00000000    0.00000000    0.00000000
     atom    3 type  1   force =     0.00000000    0.00000000    0.00000000
     atom    4 type  1   force =     0.00000000    0.00000000    0.00000000
     The SCF correction term to forces
     atom    1 type  1   force =     0.00000000    0.00000000    0.00000000
     atom    2 type  1   force =     0.00000000    0.00000000   -0.00000000
     atom    3 type  1   force =    -0.00000000    0.00000000   -0.00000000
     atom    4 type  1   force =    -0.00000000    0.00000000   -0.00000000

     Total force =     0.000000     Total SCF correction =     0.000000


     Computing stress (Cartesian axis) and pressure


     negative rho (up, down):  6.535E-01 0.000E+00
          total   stress  (Ry/bohr**3)                   (kbar)     P=      -55.08
  -0.00037443   0.00000000   0.00000000          -55.08        0.00        0.00
   0.00000000  -0.00037443   0.00000000            0.00      -55.08        0.00
   0.00000000   0.00000000  -0.00037443            0.00        0.00      -55.08

     kinetic stress (kbar)  54193.06      0.00      0.00
                                0.00  54193.06      0.00
                                0.00      0.00  54193.06

     local   stress (kbar)  24219.40      0.00     -0.00
                                0.00  24219.40      0.00
                               -0.00      0.00  24219.40

     nonloc. stress (kbar)   -340.51      0.00      0.00
                                0.00   -340.51      0.00
                                0.00      0.00   -340.51

     hartree stress (kbar)  11775.23     -0.00      0.00
                               -0.00  11775.23     -0.00
                                0.00     -0.00  11775.23

     exc-cor stress (kbar)  39838.36      0.00     -0.00
                                0.00  39838.36     -0.00
                               -0.00     -0.00  39838.36

     corecor stress (kbar) -54828.47      0.00     -0.00
                                0.00 -54828.47     -0.00
                               -0.00     -0.00 -54828.47

     ewald   stress (kbar) -74912.16     -0.00     -0.00
                               -0.00 -74912.16     -0.00
                               -0.00     -0.00 -74912.16

     hubbard stress (kbar)      0.00      0.00      0.00
                                0.00      0.00      0.00
                                0.00      0.00      0.00

     DFT-D   stress (kbar)      0.00      0.00      0.00
                                0.00      0.00      0.00
                                0.00      0.00      0.00

     XDM     stress (kbar)      0.00      0.00      0.00
                                0.00      0.00      0.00
                                0.00      0.00      0.00

     dft-nl  stress (kbar)      0.00      0.00      0.00
                                0.00      0.00      0.00
                                0.00      0.00      0.00

     TS-vdW  stress (kbar)      0.00      0.00      0.00
                                0.00      0.00      0.00
                                0.00      0.00      0.00


                                0.00      0.00      0.00
                                0.00      0.00      0.00


                                0.00      0.00      0.00


     Writing output data file ./pt/out/aiida.save/
 
     init_run     :      1.17s CPU      1.41s WALL (       1 calls)
     electrons    :     25.90s CPU     26.24s WALL (       1 calls)
     forces       :      0.19s CPU      0.19s WALL (       1 calls)
     stress       :      1.70s CPU      1.33s WALL (       1 calls)

     Called by init_run:
     wfcinit      :      0.86s CPU      0.92s WALL (       1 calls)
                                        0.92s GPU  (       1 calls)
     wfcinit:atom :      0.04s CPU      0.04s WALL (     165 calls)
                                        0.02s GPU  (     165 calls)
     wfcinit:wfcr :      0.66s CPU      0.69s WALL (     165 calls)
                                        0.69s GPU  (     165 calls)
     potinit      :      0.01s CPU      0.01s WALL (       1 calls)
     hinit0       :      0.06s CPU      0.06s WALL (       1 calls)

     Called by electrons:
     c_bands      :     24.18s CPU     24.55s WALL (      10 calls)
     sum_band     :      1.58s CPU      1.58s WALL (      10 calls)
     v_of_rho     :      0.09s CPU      0.06s WALL (      11 calls)
     v_h          :      0.01s CPU      0.00s WALL (      11 calls)
     v_xc         :      0.09s CPU      0.06s WALL (      13 calls)
     newd         :      0.24s CPU      0.42s WALL (      11 calls)
                                        0.42s GPU  (      11 calls)
     mix_rho      :      0.02s CPU      0.01s WALL (      10 calls)

     Called by c_bands:
     init_us_2_gp :      0.59s CPU      0.63s WALL (    3795 calls)
     cegterg      :     23.29s CPU     23.53s WALL (    1650 calls)

     Called by sum_band:
     sum_band:wei :      0.02s CPU      0.02s WALL (      10 calls)
                                        0.02s GPU  (      10 calls)
     sum_band:loo :      1.52s CPU      1.53s WALL (      10 calls)
                                        1.53s GPU  (      10 calls)
     sum_band:buf :      0.15s CPU      0.16s WALL (    1650 calls)
                                        0.16s GPU  (    1650 calls)
     sum_band:ini :      0.27s CPU      0.52s WALL (    1650 calls)
                                        0.51s GPU  (    1650 calls)
     sum_band:cal :      0.01s CPU      0.21s WALL (    1650 calls)
                                        0.19s GPU  (    1650 calls)
     sum_band:bec :      0.19s CPU      0.20s WALL (    1650 calls)
                                        0.20s GPU  (    1650 calls)
     addusdens    :      0.02s CPU      0.02s WALL (      10 calls)
                                        0.02s GPU  (      10 calls)
     addusd:skk   :      0.00s CPU      0.00s WALL (      10 calls)
                                        0.00s GPU  (      10 calls)

     Called by *egterg:
     cdiaghg      :     15.59s CPU     15.64s WALL (    5365 calls)
                                       15.59s GPU  (    5365 calls)
     cegterg:over :      0.95s CPU      0.96s WALL (    3715 calls)
     cegterg:upda :      0.37s CPU      0.37s WALL (    3715 calls)
     cegterg:last :      0.54s CPU      0.54s WALL (    3300 calls)
     h_psi        :      3.28s CPU      3.43s WALL (    5530 calls)
                                        3.40s GPU  (    5530 calls)
     s_psi        :      0.14s CPU      0.89s WALL (    5530 calls)
                                        0.87s GPU  (    5530 calls)
     g_psi        :      0.01s CPU      0.04s WALL (    3715 calls)
                                        0.03s GPU  (    3715 calls)

     Called by h_psi:
     h_psi:calbec :      0.05s CPU      0.60s WALL (    5530 calls)
                                        0.58s GPU  (    5530 calls)
     vloc_psi     :      1.81s CPU      1.92s WALL (    5530 calls)
                                        1.88s GPU  (    5530 calls)
     add_vuspsi   :      0.08s CPU      0.83s WALL (    5530 calls)
                                        0.82s GPU  (    5530 calls)

     General routines
     calbec       :      0.06s CPU      0.06s WALL (    8005 calls)
     fft          :      0.09s CPU      0.06s WALL (     166 calls)
                                        0.01s GPU  (      18 calls)
     ffts         :      0.01s CPU      0.00s WALL (      21 calls)
     fftw         :      0.13s CPU      2.15s WALL (   32402 calls)
                                        1.84s GPU  (   32402 calls)
     interpolate  :      0.01s CPU      0.01s WALL (      11 calls)
 
     Parallel routines
 
     PWSCF        :     29.21s CPU     29.42s WALL

 
   This run was terminated on:   2:50:49  12Mar2025            

=------------------------------------------------------------------------------=
   JOB DONE.
=------------------------------------------------------------------------------=
Warning: ieee_invalid is signaling
Warning: ieee_divide_by_zero is signaling
Warning: ieee_underflow is signaling
Warning: ieee_inexact is signaling
FORTRAN STOP
