
     Program PWSCF v.6.8 starts on 13Mar2025 at  8: 6: 9 

     This program is part of the open-source Quantum ESPRESSO suite
     for quantum simulation of materials; please cite
         "P. Giannozzi et al., J. Phys.:Condens. Matter 21 395502 (2009);
         "P. Giannozzi et al., J. Phys.:Condens. Matter 29 465901 (2017);
         "P. Giannozzi et al., J. Chem. Phys. 152 154105 (2020);
          URL http://www.quantum-espresso.org", 
     in publications or presentations arising from this work. More details at
     http://www.quantum-espresso.org/quote

     Parallel version (MPI & OpenMP), running on       2 processor cores
     Number of MPI processes:                 1
     Threads/MPI process:                     2

     MPI processes distributed on     1 nodes
     11864 MiB available memory on the printing compute node when the environment starts
 
     Reading input from ni/pwscf.in

     Current dimensions of program PWSCF are:
     Max number of different atomic species (ntypx) = 10
     Max number of k-points (npk) =  40000
     Max angular momentum in pseudopotentials (lmaxx) =  4
     Found symmetry operation: I + (  0.0000 -0.5000 -0.5000)
     This is a supercell, fractional translations are disabled
     Message from routine setup:
     using ibrav=0 with symmetry is DISCOURAGED, use correct ibrav instead

     Subspace diagonalization in iterative solution of the eigenvalue problem:
     a serial algorithm will be used

 
     G-vector sticks info
     --------------------
     sticks:   dense  smooth     PW     G-vecs:    dense   smooth      PW
     Sum        1237     621    193                32795    11633    2007
 
     Using Slab Decomposition
 


     bravais-lattice index     =            0
     lattice parameter (alat)  =       6.5762  a.u.
     unit-cell volume          =     284.4031 (a.u.)^3
     number of atoms/cell      =            4
     number of atomic types    =            1
     number of electrons       =        72.00
     number of Kohn-Sham states=           43
     kinetic-energy cutoff     =      45.0000  Ry
     charge density cutoff     =     360.0000  Ry
     scf convergence threshold =      8.0E-10
     mixing beta               =       0.4000
     number of iterations used =            8  plain     mixing
     Exchange-correlation= SLA  PW   PSX  PSC
                           (   1   4  10   8   0   0   0)

     GPU acceleration is ACTIVE.
     GPU-aware MPI enabled


     GPU used by master process:

        Device Number: 0
        Device name: NVIDIA GeForce RTX 4090
        Compute capability : 89
        Ratio of single to double precision performance  : 64
        Memory Clock Rate (KHz): 10501000
        Memory Bus Width (bits): 384
        Peak Memory Bandwidth (GB/s): ******

     celldm(1)=   6.576247  celldm(2)=   0.000000  celldm(3)=   0.000000
     celldm(4)=   0.000000  celldm(5)=   0.000000  celldm(6)=   0.000000

     crystal axes: (cart. coord. in units of alat)
               a(1) = (   1.000000   0.000000   0.000000 )  
               a(2) = (   0.000000   1.000000   0.000000 )  
               a(3) = (   0.000000   0.000000   1.000000 )  

     reciprocal axes: (cart. coord. in units 2 pi/alat)
               b(1) = (  1.000000  0.000000  0.000000 )  
               b(2) = (  0.000000  1.000000  0.000000 )  
               b(3) = (  0.000000  0.000000  1.000000 )  


     PseudoPot. # 1 for Ni read from file:
     ./ni/pseudo/ni_pbesol_v1.4.uspp.F.UPF
     MD5 check sum: de937c0c8ae4b350e69c02b76d8a83cb
     Pseudo is Ultrasoft + core correction, Zval = 18.0
     Generated by new atomic code, or converted to UPF format
     Using radial grid of  865 points,  6 beta functions with: 
                l(1) =   0
                l(2) =   0
                l(3) =   1
                l(4) =   1
                l(5) =   2
                l(6) =   2
     Q(r) pseudized with 10 coefficients,  rinner =    0.980   0.980   0.980
                                                       0.980   0.980

     atomic species   valence    mass     pseudopotential
        Ni            18.00    58.69340     Ni( 1.00)

     Starting magnetic structure 
     atomic species   magnetization
        Ni           0.278

     48 Sym. Ops., with inversion, found


                                    s                        frac. trans.

      isym =  1     identity                                     

 cryst.   s( 1) = (     1          0          0      )
                  (     0          1          0      )
                  (     0          0          1      )

 cart.    s( 1) = (  1.0000000  0.0000000  0.0000000 )
                  (  0.0000000  1.0000000  0.0000000 )
                  (  0.0000000  0.0000000  1.0000000 )


      isym =  2     180 deg rotation - cart. axis [0,0,1]        

 cryst.   s( 2) = (    -1          0          0      )
                  (     0         -1          0      )
                  (     0          0          1      )

 cart.    s( 2) = ( -1.0000000  0.0000000  0.0000000 )
                  (  0.0000000 -1.0000000  0.0000000 )
                  (  0.0000000  0.0000000  1.0000000 )


      isym =  3     180 deg rotation - cart. axis [0,1,0]        

 cryst.   s( 3) = (    -1          0          0      )
                  (     0          1          0      )
                  (     0          0         -1      )

 cart.    s( 3) = ( -1.0000000  0.0000000  0.0000000 )
                  (  0.0000000  1.0000000  0.0000000 )
                  (  0.0000000  0.0000000 -1.0000000 )


      isym =  4     180 deg rotation - cart. axis [1,0,0]        

 cryst.   s( 4) = (     1          0          0      )
                  (     0         -1          0      )
                  (     0          0         -1      )

 cart.    s( 4) = (  1.0000000  0.0000000  0.0000000 )
                  (  0.0000000 -1.0000000  0.0000000 )
                  (  0.0000000  0.0000000 -1.0000000 )


      isym =  5     180 deg rotation - cart. axis [1,1,0]        

 cryst.   s( 5) = (     0          1          0      )
                  (     1          0          0      )
                  (     0          0         -1      )

 cart.    s( 5) = (  0.0000000  1.0000000  0.0000000 )
                  (  1.0000000  0.0000000  0.0000000 )
                  (  0.0000000  0.0000000 -1.0000000 )


      isym =  6     180 deg rotation - cart. axis [1,-1,0]       

 cryst.   s( 6) = (     0         -1          0      )
                  (    -1          0          0      )
                  (     0          0         -1      )

 cart.    s( 6) = (  0.0000000 -1.0000000  0.0000000 )
                  ( -1.0000000  0.0000000  0.0000000 )
                  (  0.0000000  0.0000000 -1.0000000 )


      isym =  7      90 deg rotation - cart. axis [0,0,-1]       

 cryst.   s( 7) = (     0         -1          0      )
                  (     1          0          0      )
                  (     0          0          1      )

 cart.    s( 7) = (  0.0000000  1.0000000  0.0000000 )
                  ( -1.0000000  0.0000000  0.0000000 )
                  (  0.0000000  0.0000000  1.0000000 )


      isym =  8      90 deg rotation - cart. axis [0,0,1]        

 cryst.   s( 8) = (     0          1          0      )
                  (    -1          0          0      )
                  (     0          0          1      )

 cart.    s( 8) = (  0.0000000 -1.0000000  0.0000000 )
                  (  1.0000000  0.0000000  0.0000000 )
                  (  0.0000000  0.0000000  1.0000000 )


      isym =  9     180 deg rotation - cart. axis [1,0,1]        

 cryst.   s( 9) = (     0          0          1      )
                  (     0         -1          0      )
                  (     1          0          0      )

 cart.    s( 9) = (  0.0000000  0.0000000  1.0000000 )
                  (  0.0000000 -1.0000000  0.0000000 )
                  (  1.0000000  0.0000000  0.0000000 )


      isym = 10     180 deg rotation - cart. axis [-1,0,1]       

 cryst.   s(10) = (     0          0         -1      )
                  (     0         -1          0      )
                  (    -1          0          0      )

 cart.    s(10) = (  0.0000000  0.0000000 -1.0000000 )
                  (  0.0000000 -1.0000000  0.0000000 )
                  ( -1.0000000  0.0000000  0.0000000 )


      isym = 11      90 deg rotation - cart. axis [0,1,0]        

 cryst.   s(11) = (     0          0         -1      )
                  (     0          1          0      )
                  (     1          0          0      )

 cart.    s(11) = (  0.0000000  0.0000000  1.0000000 )
                  (  0.0000000  1.0000000  0.0000000 )
                  ( -1.0000000  0.0000000  0.0000000 )


      isym = 12      90 deg rotation - cart. axis [0,-1,0]       

 cryst.   s(12) = (     0          0          1      )
                  (     0          1          0      )
                  (    -1          0          0      )

 cart.    s(12) = (  0.0000000  0.0000000 -1.0000000 )
                  (  0.0000000  1.0000000  0.0000000 )
                  (  1.0000000  0.0000000  0.0000000 )


      isym = 13     180 deg rotation - cart. axis [0,1,1]        

 cryst.   s(13) = (    -1          0          0      )
                  (     0          0          1      )
                  (     0          1          0      )

 cart.    s(13) = ( -1.0000000  0.0000000  0.0000000 )
                  (  0.0000000  0.0000000  1.0000000 )
                  (  0.0000000  1.0000000  0.0000000 )


      isym = 14     180 deg rotation - cart. axis [0,1,-1]       

 cryst.   s(14) = (    -1          0          0      )
                  (     0          0         -1      )
                  (     0         -1          0      )

 cart.    s(14) = ( -1.0000000  0.0000000  0.0000000 )
                  (  0.0000000  0.0000000 -1.0000000 )
                  (  0.0000000 -1.0000000  0.0000000 )


      isym = 15      90 deg rotation - cart. axis [-1,0,0]       

 cryst.   s(15) = (     1          0          0      )
                  (     0          0         -1      )
                  (     0          1          0      )

 cart.    s(15) = (  1.0000000  0.0000000  0.0000000 )
                  (  0.0000000  0.0000000  1.0000000 )
                  (  0.0000000 -1.0000000  0.0000000 )


      isym = 16      90 deg rotation - cart. axis [1,0,0]        

 cryst.   s(16) = (     1          0          0      )
                  (     0          0          1      )
                  (     0         -1          0      )

 cart.    s(16) = (  1.0000000  0.0000000  0.0000000 )
                  (  0.0000000  0.0000000 -1.0000000 )
                  (  0.0000000  1.0000000  0.0000000 )


      isym = 17     120 deg rotation - cart. axis [-1,-1,-1]     

 cryst.   s(17) = (     0          0          1      )
                  (     1          0          0      )
                  (     0          1          0      )

 cart.    s(17) = (  0.0000000  1.0000000  0.0000000 )
                  (  0.0000000  0.0000000  1.0000000 )
                  (  1.0000000  0.0000000  0.0000000 )


      isym = 18     120 deg rotation - cart. axis [-1,1,1]       

 cryst.   s(18) = (     0          0         -1      )
                  (    -1          0          0      )
                  (     0          1          0      )

 cart.    s(18) = (  0.0000000 -1.0000000  0.0000000 )
                  (  0.0000000  0.0000000  1.0000000 )
                  ( -1.0000000  0.0000000  0.0000000 )


      isym = 19     120 deg rotation - cart. axis [1,1,-1]       

 cryst.   s(19) = (     0          0         -1      )
                  (     1          0          0      )
                  (     0         -1          0      )

 cart.    s(19) = (  0.0000000  1.0000000  0.0000000 )
                  (  0.0000000  0.0000000 -1.0000000 )
                  ( -1.0000000  0.0000000  0.0000000 )


      isym = 20     120 deg rotation - cart. axis [1,-1,1]       

 cryst.   s(20) = (     0          0          1      )
                  (    -1          0          0      )
                  (     0         -1          0      )

 cart.    s(20) = (  0.0000000 -1.0000000  0.0000000 )
                  (  0.0000000  0.0000000 -1.0000000 )
                  (  1.0000000  0.0000000  0.0000000 )


      isym = 21     120 deg rotation - cart. axis [1,1,1]        

 cryst.   s(21) = (     0          1          0      )
                  (     0          0          1      )
                  (     1          0          0      )

 cart.    s(21) = (  0.0000000  0.0000000  1.0000000 )
                  (  1.0000000  0.0000000  0.0000000 )
                  (  0.0000000  1.0000000  0.0000000 )


      isym = 22     120 deg rotation - cart. axis [-1,1,-1]      

 cryst.   s(22) = (     0         -1          0      )
                  (     0          0         -1      )
                  (     1          0          0      )

 cart.    s(22) = (  0.0000000  0.0000000  1.0000000 )
                  ( -1.0000000  0.0000000  0.0000000 )
                  (  0.0000000 -1.0000000  0.0000000 )


      isym = 23     120 deg rotation - cart. axis [1,-1,-1]      

 cryst.   s(23) = (     0         -1          0      )
                  (     0          0          1      )
                  (    -1          0          0      )

 cart.    s(23) = (  0.0000000  0.0000000 -1.0000000 )
                  ( -1.0000000  0.0000000  0.0000000 )
                  (  0.0000000  1.0000000  0.0000000 )


      isym = 24     120 deg rotation - cart. axis [-1,-1,1]      

 cryst.   s(24) = (     0          1          0      )
                  (     0          0         -1      )
                  (    -1          0          0      )

 cart.    s(24) = (  0.0000000  0.0000000 -1.0000000 )
                  (  1.0000000  0.0000000  0.0000000 )
                  (  0.0000000 -1.0000000  0.0000000 )


      isym = 25     inversion                                    

 cryst.   s(25) = (    -1          0          0      )
                  (     0         -1          0      )
                  (     0          0         -1      )

 cart.    s(25) = ( -1.0000000  0.0000000  0.0000000 )
                  (  0.0000000 -1.0000000  0.0000000 )
                  (  0.0000000  0.0000000 -1.0000000 )


      isym = 26     inv. 180 deg rotation - cart. axis [0,0,1]   

 cryst.   s(26) = (     1          0          0      )
                  (     0          1          0      )
                  (     0          0         -1      )

 cart.    s(26) = (  1.0000000  0.0000000  0.0000000 )
                  (  0.0000000  1.0000000  0.0000000 )
                  (  0.0000000  0.0000000 -1.0000000 )


      isym = 27     inv. 180 deg rotation - cart. axis [0,1,0]   

 cryst.   s(27) = (     1          0          0      )
                  (     0         -1          0      )
                  (     0          0          1      )

 cart.    s(27) = (  1.0000000  0.0000000  0.0000000 )
                  (  0.0000000 -1.0000000  0.0000000 )
                  (  0.0000000  0.0000000  1.0000000 )


      isym = 28     inv. 180 deg rotation - cart. axis [1,0,0]   

 cryst.   s(28) = (    -1          0          0      )
                  (     0          1          0      )
                  (     0          0          1      )

 cart.    s(28) = ( -1.0000000  0.0000000  0.0000000 )
                  (  0.0000000  1.0000000  0.0000000 )
                  (  0.0000000  0.0000000  1.0000000 )


      isym = 29     inv. 180 deg rotation - cart. axis [1,1,0]   

 cryst.   s(29) = (     0         -1          0      )
                  (    -1          0          0      )
                  (     0          0          1      )

 cart.    s(29) = (  0.0000000 -1.0000000  0.0000000 )
                  ( -1.0000000  0.0000000  0.0000000 )
                  (  0.0000000  0.0000000  1.0000000 )


      isym = 30     inv. 180 deg rotation - cart. axis [1,-1,0]  

 cryst.   s(30) = (     0          1          0      )
                  (     1          0          0      )
                  (     0          0          1      )

 cart.    s(30) = (  0.0000000  1.0000000  0.0000000 )
                  (  1.0000000  0.0000000  0.0000000 )
                  (  0.0000000  0.0000000  1.0000000 )


      isym = 31     inv.  90 deg rotation - cart. axis [0,0,-1]  

 cryst.   s(31) = (     0          1          0      )
                  (    -1          0          0      )
                  (     0          0         -1      )

 cart.    s(31) = (  0.0000000 -1.0000000  0.0000000 )
                  (  1.0000000  0.0000000  0.0000000 )
                  (  0.0000000  0.0000000 -1.0000000 )


      isym = 32     inv.  90 deg rotation - cart. axis [0,0,1]   

 cryst.   s(32) = (     0         -1          0      )
                  (     1          0          0      )
                  (     0          0         -1      )

 cart.    s(32) = (  0.0000000  1.0000000  0.0000000 )
                  ( -1.0000000  0.0000000  0.0000000 )
                  (  0.0000000  0.0000000 -1.0000000 )


      isym = 33     inv. 180 deg rotation - cart. axis [1,0,1]   

 cryst.   s(33) = (     0          0         -1      )
                  (     0          1          0      )
                  (    -1          0          0      )

 cart.    s(33) = (  0.0000000  0.0000000 -1.0000000 )
                  (  0.0000000  1.0000000  0.0000000 )
                  ( -1.0000000  0.0000000  0.0000000 )


      isym = 34     inv. 180 deg rotation - cart. axis [-1,0,1]  

 cryst.   s(34) = (     0          0          1      )
                  (     0          1          0      )
                  (     1          0          0      )

 cart.    s(34) = (  0.0000000  0.0000000  1.0000000 )
                  (  0.0000000  1.0000000  0.0000000 )
                  (  1.0000000  0.0000000  0.0000000 )


      isym = 35     inv.  90 deg rotation - cart. axis [0,1,0]   

 cryst.   s(35) = (     0          0          1      )
                  (     0         -1          0      )
                  (    -1          0          0      )

 cart.    s(35) = (  0.0000000  0.0000000 -1.0000000 )
                  (  0.0000000 -1.0000000  0.0000000 )
                  (  1.0000000  0.0000000  0.0000000 )


      isym = 36     inv.  90 deg rotation - cart. axis [0,-1,0]  

 cryst.   s(36) = (     0          0         -1      )
                  (     0         -1          0      )
                  (     1          0          0      )

 cart.    s(36) = (  0.0000000  0.0000000  1.0000000 )
                  (  0.0000000 -1.0000000  0.0000000 )
                  ( -1.0000000  0.0000000  0.0000000 )


      isym = 37     inv. 180 deg rotation - cart. axis [0,1,1]   

 cryst.   s(37) = (     1          0          0      )
                  (     0          0         -1      )
                  (     0         -1          0      )

 cart.    s(37) = (  1.0000000  0.0000000  0.0000000 )
                  (  0.0000000  0.0000000 -1.0000000 )
                  (  0.0000000 -1.0000000  0.0000000 )


      isym = 38     inv. 180 deg rotation - cart. axis [0,1,-1]  

 cryst.   s(38) = (     1          0          0      )
                  (     0          0          1      )
                  (     0          1          0      )

 cart.    s(38) = (  1.0000000  0.0000000  0.0000000 )
                  (  0.0000000  0.0000000  1.0000000 )
                  (  0.0000000  1.0000000  0.0000000 )


      isym = 39     inv.  90 deg rotation - cart. axis [-1,0,0]  

 cryst.   s(39) = (    -1          0          0      )
                  (     0          0          1      )
                  (     0         -1          0      )

 cart.    s(39) = ( -1.0000000  0.0000000  0.0000000 )
                  (  0.0000000  0.0000000 -1.0000000 )
                  (  0.0000000  1.0000000  0.0000000 )


      isym = 40     inv.  90 deg rotation - cart. axis [1,0,0]   

 cryst.   s(40) = (    -1          0          0      )
                  (     0          0         -1      )
                  (     0          1          0      )

 cart.    s(40) = ( -1.0000000  0.0000000  0.0000000 )
                  (  0.0000000  0.0000000  1.0000000 )
                  (  0.0000000 -1.0000000  0.0000000 )


      isym = 41     inv. 120 deg rotation - cart. axis [-1,-1,-1]

 cryst.   s(41) = (     0          0         -1      )
                  (    -1          0          0      )
                  (     0         -1          0      )

 cart.    s(41) = (  0.0000000 -1.0000000  0.0000000 )
                  (  0.0000000  0.0000000 -1.0000000 )
                  ( -1.0000000  0.0000000  0.0000000 )


      isym = 42     inv. 120 deg rotation - cart. axis [-1,1,1]  

 cryst.   s(42) = (     0          0          1      )
                  (     1          0          0      )
                  (     0         -1          0      )

 cart.    s(42) = (  0.0000000  1.0000000  0.0000000 )
                  (  0.0000000  0.0000000 -1.0000000 )
                  (  1.0000000  0.0000000  0.0000000 )


      isym = 43     inv. 120 deg rotation - cart. axis [1,1,-1]  

 cryst.   s(43) = (     0          0          1      )
                  (    -1          0          0      )
                  (     0          1          0      )

 cart.    s(43) = (  0.0000000 -1.0000000  0.0000000 )
                  (  0.0000000  0.0000000  1.0000000 )
                  (  1.0000000  0.0000000  0.0000000 )


      isym = 44     inv. 120 deg rotation - cart. axis [1,-1,1]  

 cryst.   s(44) = (     0          0         -1      )
                  (     1          0          0      )
                  (     0          1          0      )

 cart.    s(44) = (  0.0000000  1.0000000  0.0000000 )
                  (  0.0000000  0.0000000  1.0000000 )
                  ( -1.0000000  0.0000000  0.0000000 )


      isym = 45     inv. 120 deg rotation - cart. axis [1,1,1]   

 cryst.   s(45) = (     0         -1          0      )
                  (     0          0         -1      )
                  (    -1          0          0      )

 cart.    s(45) = (  0.0000000  0.0000000 -1.0000000 )
                  ( -1.0000000  0.0000000  0.0000000 )
                  (  0.0000000 -1.0000000  0.0000000 )


      isym = 46     inv. 120 deg rotation - cart. axis [-1,1,-1] 

 cryst.   s(46) = (     0          1          0      )
                  (     0          0          1      )
                  (    -1          0          0      )

 cart.    s(46) = (  0.0000000  0.0000000 -1.0000000 )
                  (  1.0000000  0.0000000  0.0000000 )
                  (  0.0000000  1.0000000  0.0000000 )


      isym = 47     inv. 120 deg rotation - cart. axis [1,-1,-1] 

 cryst.   s(47) = (     0          1          0      )
                  (     0          0         -1      )
                  (     1          0          0      )

 cart.    s(47) = (  0.0000000  0.0000000  1.0000000 )
                  (  1.0000000  0.0000000  0.0000000 )
                  (  0.0000000 -1.0000000  0.0000000 )


      isym = 48     inv. 120 deg rotation - cart. axis [-1,-1,1] 

 cryst.   s(48) = (     0         -1          0      )
                  (     0          0          1      )
                  (     1          0          0      )

 cart.    s(48) = (  0.0000000  0.0000000  1.0000000 )
                  ( -1.0000000  0.0000000  0.0000000 )
                  (  0.0000000  1.0000000  0.0000000 )


   Cartesian axes

     site n.     atom                  positions (alat units)
         1           Ni  tau(   1) = (   0.0000000   0.0000000   0.0000000  )
         2           Ni  tau(   2) = (   0.0000000   0.5000000   0.5000000  )
         3           Ni  tau(   3) = (   0.5000000   0.0000000   0.5000000  )
         4           Ni  tau(   4) = (   0.5000000   0.5000000   0.0000000  )

   Crystallographic axes

     site n.     atom                  positions (cryst. coord.)
         1           Ni  tau(   1) = (  0.0000000  0.0000000  0.0000000  )
         2           Ni  tau(   2) = (  0.0000000  0.5000000  0.5000000  )
         3           Ni  tau(   3) = (  0.5000000  0.0000000  0.5000000  )
         4           Ni  tau(   4) = (  0.5000000  0.5000000  0.0000000  )

     number of k points=   220  Marzari-Vanderbilt smearing, width (Ry)=  0.0125
                       cart. coord. in units 2pi/alat
        k(    1) = (   0.0000000   0.0000000   0.0000000), wk =   0.0001458
        k(    2) = (   0.0000000   0.0000000   0.0526316), wk =   0.0008748
        k(    3) = (   0.0000000   0.0000000   0.1052632), wk =   0.0008748
        k(    4) = (   0.0000000   0.0000000   0.1578947), wk =   0.0008748
        k(    5) = (   0.0000000   0.0000000   0.2105263), wk =   0.0008748
        k(    6) = (   0.0000000   0.0000000   0.2631579), wk =   0.0008748
        k(    7) = (   0.0000000   0.0000000   0.3157895), wk =   0.0008748
        k(    8) = (   0.0000000   0.0000000   0.3684211), wk =   0.0008748
        k(    9) = (   0.0000000   0.0000000   0.4210526), wk =   0.0008748
        k(   10) = (   0.0000000   0.0000000   0.4736842), wk =   0.0008748
        k(   11) = (   0.0000000   0.0526316   0.0526316), wk =   0.0017495
        k(   12) = (   0.0000000   0.0526316   0.1052632), wk =   0.0034991
        k(   13) = (   0.0000000   0.0526316   0.1578947), wk =   0.0034991
        k(   14) = (   0.0000000   0.0526316   0.2105263), wk =   0.0034991
        k(   15) = (   0.0000000   0.0526316   0.2631579), wk =   0.0034991
        k(   16) = (   0.0000000   0.0526316   0.3157895), wk =   0.0034991
        k(   17) = (   0.0000000   0.0526316   0.3684211), wk =   0.0034991
        k(   18) = (   0.0000000   0.0526316   0.4210526), wk =   0.0034991
        k(   19) = (   0.0000000   0.0526316   0.4736842), wk =   0.0034991
        k(   20) = (   0.0000000   0.1052632   0.1052632), wk =   0.0017495
        k(   21) = (   0.0000000   0.1052632   0.1578947), wk =   0.0034991
        k(   22) = (   0.0000000   0.1052632   0.2105263), wk =   0.0034991
        k(   23) = (   0.0000000   0.1052632   0.2631579), wk =   0.0034991
        k(   24) = (   0.0000000   0.1052632   0.3157895), wk =   0.0034991
        k(   25) = (   0.0000000   0.1052632   0.3684211), wk =   0.0034991
        k(   26) = (   0.0000000   0.1052632   0.4210526), wk =   0.0034991
        k(   27) = (   0.0000000   0.1052632   0.4736842), wk =   0.0034991
        k(   28) = (   0.0000000   0.1578947   0.1578947), wk =   0.0017495
        k(   29) = (   0.0000000   0.1578947   0.2105263), wk =   0.0034991
        k(   30) = (   0.0000000   0.1578947   0.2631579), wk =   0.0034991
        k(   31) = (   0.0000000   0.1578947   0.3157895), wk =   0.0034991
        k(   32) = (   0.0000000   0.1578947   0.3684211), wk =   0.0034991
        k(   33) = (   0.0000000   0.1578947   0.4210526), wk =   0.0034991
        k(   34) = (   0.0000000   0.1578947   0.4736842), wk =   0.0034991
        k(   35) = (   0.0000000   0.2105263   0.2105263), wk =   0.0017495
        k(   36) = (   0.0000000   0.2105263   0.2631579), wk =   0.0034991
        k(   37) = (   0.0000000   0.2105263   0.3157895), wk =   0.0034991
        k(   38) = (   0.0000000   0.2105263   0.3684211), wk =   0.0034991
        k(   39) = (   0.0000000   0.2105263   0.4210526), wk =   0.0034991
        k(   40) = (   0.0000000   0.2105263   0.4736842), wk =   0.0034991
        k(   41) = (   0.0000000   0.2631579   0.2631579), wk =   0.0017495
        k(   42) = (   0.0000000   0.2631579   0.3157895), wk =   0.0034991
        k(   43) = (   0.0000000   0.2631579   0.3684211), wk =   0.0034991
        k(   44) = (   0.0000000   0.2631579   0.4210526), wk =   0.0034991
        k(   45) = (   0.0000000   0.2631579   0.4736842), wk =   0.0034991
        k(   46) = (   0.0000000   0.3157895   0.3157895), wk =   0.0017495
        k(   47) = (   0.0000000   0.3157895   0.3684211), wk =   0.0034991
        k(   48) = (   0.0000000   0.3157895   0.4210526), wk =   0.0034991
        k(   49) = (   0.0000000   0.3157895   0.4736842), wk =   0.0034991
        k(   50) = (   0.0000000   0.3684211   0.3684211), wk =   0.0017495
        k(   51) = (   0.0000000   0.3684211   0.4210526), wk =   0.0034991
        k(   52) = (   0.0000000   0.3684211   0.4736842), wk =   0.0034991
        k(   53) = (   0.0000000   0.4210526   0.4210526), wk =   0.0017495
        k(   54) = (   0.0000000   0.4210526   0.4736842), wk =   0.0034991
        k(   55) = (   0.0000000   0.4736842   0.4736842), wk =   0.0017495
        k(   56) = (   0.0526316   0.0526316   0.0526316), wk =   0.0011664
        k(   57) = (   0.0526316   0.0526316   0.1052632), wk =   0.0034991
        k(   58) = (   0.0526316   0.0526316   0.1578947), wk =   0.0034991
        k(   59) = (   0.0526316   0.0526316   0.2105263), wk =   0.0034991
        k(   60) = (   0.0526316   0.0526316   0.2631579), wk =   0.0034991
        k(   61) = (   0.0526316   0.0526316   0.3157895), wk =   0.0034991
        k(   62) = (   0.0526316   0.0526316   0.3684211), wk =   0.0034991
        k(   63) = (   0.0526316   0.0526316   0.4210526), wk =   0.0034991
        k(   64) = (   0.0526316   0.0526316   0.4736842), wk =   0.0034991
        k(   65) = (   0.0526316   0.1052632   0.1052632), wk =   0.0034991
        k(   66) = (   0.0526316   0.1052632   0.1578947), wk =   0.0069981
        k(   67) = (   0.0526316   0.1052632   0.2105263), wk =   0.0069981
        k(   68) = (   0.0526316   0.1052632   0.2631579), wk =   0.0069981
        k(   69) = (   0.0526316   0.1052632   0.3157895), wk =   0.0069981
        k(   70) = (   0.0526316   0.1052632   0.3684211), wk =   0.0069981
        k(   71) = (   0.0526316   0.1052632   0.4210526), wk =   0.0069981
        k(   72) = (   0.0526316   0.1052632   0.4736842), wk =   0.0069981
        k(   73) = (   0.0526316   0.1578947   0.1578947), wk =   0.0034991
        k(   74) = (   0.0526316   0.1578947   0.2105263), wk =   0.0069981
        k(   75) = (   0.0526316   0.1578947   0.2631579), wk =   0.0069981
        k(   76) = (   0.0526316   0.1578947   0.3157895), wk =   0.0069981
        k(   77) = (   0.0526316   0.1578947   0.3684211), wk =   0.0069981
        k(   78) = (   0.0526316   0.1578947   0.4210526), wk =   0.0069981
        k(   79) = (   0.0526316   0.1578947   0.4736842), wk =   0.0069981
        k(   80) = (   0.0526316   0.2105263   0.2105263), wk =   0.0034991
        k(   81) = (   0.0526316   0.2105263   0.2631579), wk =   0.0069981
        k(   82) = (   0.0526316   0.2105263   0.3157895), wk =   0.0069981
        k(   83) = (   0.0526316   0.2105263   0.3684211), wk =   0.0069981
        k(   84) = (   0.0526316   0.2105263   0.4210526), wk =   0.0069981
        k(   85) = (   0.0526316   0.2105263   0.4736842), wk =   0.0069981
        k(   86) = (   0.0526316   0.2631579   0.2631579), wk =   0.0034991
        k(   87) = (   0.0526316   0.2631579   0.3157895), wk =   0.0069981
        k(   88) = (   0.0526316   0.2631579   0.3684211), wk =   0.0069981
        k(   89) = (   0.0526316   0.2631579   0.4210526), wk =   0.0069981
        k(   90) = (   0.0526316   0.2631579   0.4736842), wk =   0.0069981
        k(   91) = (   0.0526316   0.3157895   0.3157895), wk =   0.0034991
        k(   92) = (   0.0526316   0.3157895   0.3684211), wk =   0.0069981
        k(   93) = (   0.0526316   0.3157895   0.4210526), wk =   0.0069981
        k(   94) = (   0.0526316   0.3157895   0.4736842), wk =   0.0069981
        k(   95) = (   0.0526316   0.3684211   0.3684211), wk =   0.0034991
        k(   96) = (   0.0526316   0.3684211   0.4210526), wk =   0.0069981
        k(   97) = (   0.0526316   0.3684211   0.4736842), wk =   0.0069981
        k(   98) = (   0.0526316   0.4210526   0.4210526), wk =   0.0034991
        k(   99) = (   0.0526316   0.4210526   0.4736842), wk =   0.0069981
        k(  100) = (   0.0526316   0.4736842   0.4736842), wk =   0.0034991
        k(  101) = (   0.1052632   0.1052632   0.1052632), wk =   0.0011664
        k(  102) = (   0.1052632   0.1052632   0.1578947), wk =   0.0034991
        k(  103) = (   0.1052632   0.1052632   0.2105263), wk =   0.0034991
        k(  104) = (   0.1052632   0.1052632   0.2631579), wk =   0.0034991
        k(  105) = (   0.1052632   0.1052632   0.3157895), wk =   0.0034991
        k(  106) = (   0.1052632   0.1052632   0.3684211), wk =   0.0034991
        k(  107) = (   0.1052632   0.1052632   0.4210526), wk =   0.0034991
        k(  108) = (   0.1052632   0.1052632   0.4736842), wk =   0.0034991
        k(  109) = (   0.1052632   0.1578947   0.1578947), wk =   0.0034991
        k(  110) = (   0.1052632   0.1578947   0.2105263), wk =   0.0069981
        k(  111) = (   0.1052632   0.1578947   0.2631579), wk =   0.0069981
        k(  112) = (   0.1052632   0.1578947   0.3157895), wk =   0.0069981
        k(  113) = (   0.1052632   0.1578947   0.3684211), wk =   0.0069981
        k(  114) = (   0.1052632   0.1578947   0.4210526), wk =   0.0069981
        k(  115) = (   0.1052632   0.1578947   0.4736842), wk =   0.0069981
        k(  116) = (   0.1052632   0.2105263   0.2105263), wk =   0.0034991
        k(  117) = (   0.1052632   0.2105263   0.2631579), wk =   0.0069981
        k(  118) = (   0.1052632   0.2105263   0.3157895), wk =   0.0069981
        k(  119) = (   0.1052632   0.2105263   0.3684211), wk =   0.0069981
        k(  120) = (   0.1052632   0.2105263   0.4210526), wk =   0.0069981
        k(  121) = (   0.1052632   0.2105263   0.4736842), wk =   0.0069981
        k(  122) = (   0.1052632   0.2631579   0.2631579), wk =   0.0034991
        k(  123) = (   0.1052632   0.2631579   0.3157895), wk =   0.0069981
        k(  124) = (   0.1052632   0.2631579   0.3684211), wk =   0.0069981
        k(  125) = (   0.1052632   0.2631579   0.4210526), wk =   0.0069981
        k(  126) = (   0.1052632   0.2631579   0.4736842), wk =   0.0069981
        k(  127) = (   0.1052632   0.3157895   0.3157895), wk =   0.0034991
        k(  128) = (   0.1052632   0.3157895   0.3684211), wk =   0.0069981
        k(  129) = (   0.1052632   0.3157895   0.4210526), wk =   0.0069981
        k(  130) = (   0.1052632   0.3157895   0.4736842), wk =   0.0069981
        k(  131) = (   0.1052632   0.3684211   0.3684211), wk =   0.0034991
        k(  132) = (   0.1052632   0.3684211   0.4210526), wk =   0.0069981
        k(  133) = (   0.1052632   0.3684211   0.4736842), wk =   0.0069981
        k(  134) = (   0.1052632   0.4210526   0.4210526), wk =   0.0034991
        k(  135) = (   0.1052632   0.4210526   0.4736842), wk =   0.0069981
        k(  136) = (   0.1052632   0.4736842   0.4736842), wk =   0.0034991
        k(  137) = (   0.1578947   0.1578947   0.1578947), wk =   0.0011664
        k(  138) = (   0.1578947   0.1578947   0.2105263), wk =   0.0034991
        k(  139) = (   0.1578947   0.1578947   0.2631579), wk =   0.0034991
        k(  140) = (   0.1578947   0.1578947   0.3157895), wk =   0.0034991
        k(  141) = (   0.1578947   0.1578947   0.3684211), wk =   0.0034991
        k(  142) = (   0.1578947   0.1578947   0.4210526), wk =   0.0034991
        k(  143) = (   0.1578947   0.1578947   0.4736842), wk =   0.0034991
        k(  144) = (   0.1578947   0.2105263   0.2105263), wk =   0.0034991
        k(  145) = (   0.1578947   0.2105263   0.2631579), wk =   0.0069981
        k(  146) = (   0.1578947   0.2105263   0.3157895), wk =   0.0069981
        k(  147) = (   0.1578947   0.2105263   0.3684211), wk =   0.0069981
        k(  148) = (   0.1578947   0.2105263   0.4210526), wk =   0.0069981
        k(  149) = (   0.1578947   0.2105263   0.4736842), wk =   0.0069981
        k(  150) = (   0.1578947   0.2631579   0.2631579), wk =   0.0034991
        k(  151) = (   0.1578947   0.2631579   0.3157895), wk =   0.0069981
        k(  152) = (   0.1578947   0.2631579   0.3684211), wk =   0.0069981
        k(  153) = (   0.1578947   0.2631579   0.4210526), wk =   0.0069981
        k(  154) = (   0.1578947   0.2631579   0.4736842), wk =   0.0069981
        k(  155) = (   0.1578947   0.3157895   0.3157895), wk =   0.0034991
        k(  156) = (   0.1578947   0.3157895   0.3684211), wk =   0.0069981
        k(  157) = (   0.1578947   0.3157895   0.4210526), wk =   0.0069981
        k(  158) = (   0.1578947   0.3157895   0.4736842), wk =   0.0069981
        k(  159) = (   0.1578947   0.3684211   0.3684211), wk =   0.0034991
        k(  160) = (   0.1578947   0.3684211   0.4210526), wk =   0.0069981
        k(  161) = (   0.1578947   0.3684211   0.4736842), wk =   0.0069981
        k(  162) = (   0.1578947   0.4210526   0.4210526), wk =   0.0034991
        k(  163) = (   0.1578947   0.4210526   0.4736842), wk =   0.0069981
        k(  164) = (   0.1578947   0.4736842   0.4736842), wk =   0.0034991
        k(  165) = (   0.2105263   0.2105263   0.2105263), wk =   0.0011664
        k(  166) = (   0.2105263   0.2105263   0.2631579), wk =   0.0034991
        k(  167) = (   0.2105263   0.2105263   0.3157895), wk =   0.0034991
        k(  168) = (   0.2105263   0.2105263   0.3684211), wk =   0.0034991
        k(  169) = (   0.2105263   0.2105263   0.4210526), wk =   0.0034991
        k(  170) = (   0.2105263   0.2105263   0.4736842), wk =   0.0034991
        k(  171) = (   0.2105263   0.2631579   0.2631579), wk =   0.0034991
        k(  172) = (   0.2105263   0.2631579   0.3157895), wk =   0.0069981
        k(  173) = (   0.2105263   0.2631579   0.3684211), wk =   0.0069981
        k(  174) = (   0.2105263   0.2631579   0.4210526), wk =   0.0069981
        k(  175) = (   0.2105263   0.2631579   0.4736842), wk =   0.0069981
        k(  176) = (   0.2105263   0.3157895   0.3157895), wk =   0.0034991
        k(  177) = (   0.2105263   0.3157895   0.3684211), wk =   0.0069981
        k(  178) = (   0.2105263   0.3157895   0.4210526), wk =   0.0069981
        k(  179) = (   0.2105263   0.3157895   0.4736842), wk =   0.0069981
        k(  180) = (   0.2105263   0.3684211   0.3684211), wk =   0.0034991
        k(  181) = (   0.2105263   0.3684211   0.4210526), wk =   0.0069981
        k(  182) = (   0.2105263   0.3684211   0.4736842), wk =   0.0069981
        k(  183) = (   0.2105263   0.4210526   0.4210526), wk =   0.0034991
        k(  184) = (   0.2105263   0.4210526   0.4736842), wk =   0.0069981
        k(  185) = (   0.2105263   0.4736842   0.4736842), wk =   0.0034991
        k(  186) = (   0.2631579   0.2631579   0.2631579), wk =   0.0011664
        k(  187) = (   0.2631579   0.2631579   0.3157895), wk =   0.0034991
        k(  188) = (   0.2631579   0.2631579   0.3684211), wk =   0.0034991
        k(  189) = (   0.2631579   0.2631579   0.4210526), wk =   0.0034991
        k(  190) = (   0.2631579   0.2631579   0.4736842), wk =   0.0034991
        k(  191) = (   0.2631579   0.3157895   0.3157895), wk =   0.0034991
        k(  192) = (   0.2631579   0.3157895   0.3684211), wk =   0.0069981
        k(  193) = (   0.2631579   0.3157895   0.4210526), wk =   0.0069981
        k(  194) = (   0.2631579   0.3157895   0.4736842), wk =   0.0069981
        k(  195) = (   0.2631579   0.3684211   0.3684211), wk =   0.0034991
        k(  196) = (   0.2631579   0.3684211   0.4210526), wk =   0.0069981
        k(  197) = (   0.2631579   0.3684211   0.4736842), wk =   0.0069981
        k(  198) = (   0.2631579   0.4210526   0.4210526), wk =   0.0034991
        k(  199) = (   0.2631579   0.4210526   0.4736842), wk =   0.0069981
        k(  200) = (   0.2631579   0.4736842   0.4736842), wk =   0.0034991
        k(  201) = (   0.3157895   0.3157895   0.3157895), wk =   0.0011664
        k(  202) = (   0.3157895   0.3157895   0.3684211), wk =   0.0034991
        k(  203) = (   0.3157895   0.3157895   0.4210526), wk =   0.0034991
        k(  204) = (   0.3157895   0.3157895   0.4736842), wk =   0.0034991
        k(  205) = (   0.3157895   0.3684211   0.3684211), wk =   0.0034991
        k(  206) = (   0.3157895   0.3684211   0.4210526), wk =   0.0069981
        k(  207) = (   0.3157895   0.3684211   0.4736842), wk =   0.0069981
        k(  208) = (   0.3157895   0.4210526   0.4210526), wk =   0.0034991
        k(  209) = (   0.3157895   0.4210526   0.4736842), wk =   0.0069981
        k(  210) = (   0.3157895   0.4736842   0.4736842), wk =   0.0034991
        k(  211) = (   0.3684211   0.3684211   0.3684211), wk =   0.0011664
        k(  212) = (   0.3684211   0.3684211   0.4210526), wk =   0.0034991
        k(  213) = (   0.3684211   0.3684211   0.4736842), wk =   0.0034991
        k(  214) = (   0.3684211   0.4210526   0.4210526), wk =   0.0034991
        k(  215) = (   0.3684211   0.4210526   0.4736842), wk =   0.0069981
        k(  216) = (   0.3684211   0.4736842   0.4736842), wk =   0.0034991
        k(  217) = (   0.4210526   0.4210526   0.4210526), wk =   0.0011664
        k(  218) = (   0.4210526   0.4210526   0.4736842), wk =   0.0034991
        k(  219) = (   0.4210526   0.4736842   0.4736842), wk =   0.0034991
        k(  220) = (   0.4736842   0.4736842   0.4736842), wk =   0.0011664

                       cryst. coord.
        k(    1) = (   0.0000000   0.0000000   0.0000000), wk =   0.0001458
        k(    2) = (   0.0000000   0.0000000   0.0526316), wk =   0.0008748
        k(    3) = (   0.0000000   0.0000000   0.1052632), wk =   0.0008748
        k(    4) = (   0.0000000   0.0000000   0.1578947), wk =   0.0008748
        k(    5) = (   0.0000000   0.0000000   0.2105263), wk =   0.0008748
        k(    6) = (   0.0000000   0.0000000   0.2631579), wk =   0.0008748
        k(    7) = (   0.0000000   0.0000000   0.3157895), wk =   0.0008748
        k(    8) = (   0.0000000   0.0000000   0.3684211), wk =   0.0008748
        k(    9) = (   0.0000000   0.0000000   0.4210526), wk =   0.0008748
        k(   10) = (   0.0000000   0.0000000   0.4736842), wk =   0.0008748
        k(   11) = (   0.0000000   0.0526316   0.0526316), wk =   0.0017495
        k(   12) = (   0.0000000   0.0526316   0.1052632), wk =   0.0034991
        k(   13) = (   0.0000000   0.0526316   0.1578947), wk =   0.0034991
        k(   14) = (   0.0000000   0.0526316   0.2105263), wk =   0.0034991
        k(   15) = (   0.0000000   0.0526316   0.2631579), wk =   0.0034991
        k(   16) = (   0.0000000   0.0526316   0.3157895), wk =   0.0034991
        k(   17) = (   0.0000000   0.0526316   0.3684211), wk =   0.0034991
        k(   18) = (   0.0000000   0.0526316   0.4210526), wk =   0.0034991
        k(   19) = (   0.0000000   0.0526316   0.4736842), wk =   0.0034991
        k(   20) = (   0.0000000   0.1052632   0.1052632), wk =   0.0017495
        k(   21) = (   0.0000000   0.1052632   0.1578947), wk =   0.0034991
        k(   22) = (   0.0000000   0.1052632   0.2105263), wk =   0.0034991
        k(   23) = (   0.0000000   0.1052632   0.2631579), wk =   0.0034991
        k(   24) = (   0.0000000   0.1052632   0.3157895), wk =   0.0034991
        k(   25) = (   0.0000000   0.1052632   0.3684211), wk =   0.0034991
        k(   26) = (   0.0000000   0.1052632   0.4210526), wk =   0.0034991
        k(   27) = (   0.0000000   0.1052632   0.4736842), wk =   0.0034991
        k(   28) = (   0.0000000   0.1578947   0.1578947), wk =   0.0017495
        k(   29) = (   0.0000000   0.1578947   0.2105263), wk =   0.0034991
        k(   30) = (   0.0000000   0.1578947   0.2631579), wk =   0.0034991
        k(   31) = (   0.0000000   0.1578947   0.3157895), wk =   0.0034991
        k(   32) = (   0.0000000   0.1578947   0.3684211), wk =   0.0034991
        k(   33) = (   0.0000000   0.1578947   0.4210526), wk =   0.0034991
        k(   34) = (   0.0000000   0.1578947   0.4736842), wk =   0.0034991
        k(   35) = (   0.0000000   0.2105263   0.2105263), wk =   0.0017495
        k(   36) = (   0.0000000   0.2105263   0.2631579), wk =   0.0034991
        k(   37) = (   0.0000000   0.2105263   0.3157895), wk =   0.0034991
        k(   38) = (   0.0000000   0.2105263   0.3684211), wk =   0.0034991
        k(   39) = (   0.0000000   0.2105263   0.4210526), wk =   0.0034991
        k(   40) = (   0.0000000   0.2105263   0.4736842), wk =   0.0034991
        k(   41) = (   0.0000000   0.2631579   0.2631579), wk =   0.0017495
        k(   42) = (   0.0000000   0.2631579   0.3157895), wk =   0.0034991
        k(   43) = (   0.0000000   0.2631579   0.3684211), wk =   0.0034991
        k(   44) = (   0.0000000   0.2631579   0.4210526), wk =   0.0034991
        k(   45) = (   0.0000000   0.2631579   0.4736842), wk =   0.0034991
        k(   46) = (   0.0000000   0.3157895   0.3157895), wk =   0.0017495
        k(   47) = (   0.0000000   0.3157895   0.3684211), wk =   0.0034991
        k(   48) = (   0.0000000   0.3157895   0.4210526), wk =   0.0034991
        k(   49) = (   0.0000000   0.3157895   0.4736842), wk =   0.0034991
        k(   50) = (   0.0000000   0.3684211   0.3684211), wk =   0.0017495
        k(   51) = (   0.0000000   0.3684211   0.4210526), wk =   0.0034991
        k(   52) = (   0.0000000   0.3684211   0.4736842), wk =   0.0034991
        k(   53) = (   0.0000000   0.4210526   0.4210526), wk =   0.0017495
        k(   54) = (   0.0000000   0.4210526   0.4736842), wk =   0.0034991
        k(   55) = (   0.0000000   0.4736842   0.4736842), wk =   0.0017495
        k(   56) = (   0.0526316   0.0526316   0.0526316), wk =   0.0011664
        k(   57) = (   0.0526316   0.0526316   0.1052632), wk =   0.0034991
        k(   58) = (   0.0526316   0.0526316   0.1578947), wk =   0.0034991
        k(   59) = (   0.0526316   0.0526316   0.2105263), wk =   0.0034991
        k(   60) = (   0.0526316   0.0526316   0.2631579), wk =   0.0034991
        k(   61) = (   0.0526316   0.0526316   0.3157895), wk =   0.0034991
        k(   62) = (   0.0526316   0.0526316   0.3684211), wk =   0.0034991
        k(   63) = (   0.0526316   0.0526316   0.4210526), wk =   0.0034991
        k(   64) = (   0.0526316   0.0526316   0.4736842), wk =   0.0034991
        k(   65) = (   0.0526316   0.1052632   0.1052632), wk =   0.0034991
        k(   66) = (   0.0526316   0.1052632   0.1578947), wk =   0.0069981
        k(   67) = (   0.0526316   0.1052632   0.2105263), wk =   0.0069981
        k(   68) = (   0.0526316   0.1052632   0.2631579), wk =   0.0069981
        k(   69) = (   0.0526316   0.1052632   0.3157895), wk =   0.0069981
        k(   70) = (   0.0526316   0.1052632   0.3684211), wk =   0.0069981
        k(   71) = (   0.0526316   0.1052632   0.4210526), wk =   0.0069981
        k(   72) = (   0.0526316   0.1052632   0.4736842), wk =   0.0069981
        k(   73) = (   0.0526316   0.1578947   0.1578947), wk =   0.0034991
        k(   74) = (   0.0526316   0.1578947   0.2105263), wk =   0.0069981
        k(   75) = (   0.0526316   0.1578947   0.2631579), wk =   0.0069981
        k(   76) = (   0.0526316   0.1578947   0.3157895), wk =   0.0069981
        k(   77) = (   0.0526316   0.1578947   0.3684211), wk =   0.0069981
        k(   78) = (   0.0526316   0.1578947   0.4210526), wk =   0.0069981
        k(   79) = (   0.0526316   0.1578947   0.4736842), wk =   0.0069981
        k(   80) = (   0.0526316   0.2105263   0.2105263), wk =   0.0034991
        k(   81) = (   0.0526316   0.2105263   0.2631579), wk =   0.0069981
        k(   82) = (   0.0526316   0.2105263   0.3157895), wk =   0.0069981
        k(   83) = (   0.0526316   0.2105263   0.3684211), wk =   0.0069981
        k(   84) = (   0.0526316   0.2105263   0.4210526), wk =   0.0069981
        k(   85) = (   0.0526316   0.2105263   0.4736842), wk =   0.0069981
        k(   86) = (   0.0526316   0.2631579   0.2631579), wk =   0.0034991
        k(   87) = (   0.0526316   0.2631579   0.3157895), wk =   0.0069981
        k(   88) = (   0.0526316   0.2631579   0.3684211), wk =   0.0069981
        k(   89) = (   0.0526316   0.2631579   0.4210526), wk =   0.0069981
        k(   90) = (   0.0526316   0.2631579   0.4736842), wk =   0.0069981
        k(   91) = (   0.0526316   0.3157895   0.3157895), wk =   0.0034991
        k(   92) = (   0.0526316   0.3157895   0.3684211), wk =   0.0069981
        k(   93) = (   0.0526316   0.3157895   0.4210526), wk =   0.0069981
        k(   94) = (   0.0526316   0.3157895   0.4736842), wk =   0.0069981
        k(   95) = (   0.0526316   0.3684211   0.3684211), wk =   0.0034991
        k(   96) = (   0.0526316   0.3684211   0.4210526), wk =   0.0069981
        k(   97) = (   0.0526316   0.3684211   0.4736842), wk =   0.0069981
        k(   98) = (   0.0526316   0.4210526   0.4210526), wk =   0.0034991
        k(   99) = (   0.0526316   0.4210526   0.4736842), wk =   0.0069981
        k(  100) = (   0.0526316   0.4736842   0.4736842), wk =   0.0034991
        k(  101) = (   0.1052632   0.1052632   0.1052632), wk =   0.0011664
        k(  102) = (   0.1052632   0.1052632   0.1578947), wk =   0.0034991
        k(  103) = (   0.1052632   0.1052632   0.2105263), wk =   0.0034991
        k(  104) = (   0.1052632   0.1052632   0.2631579), wk =   0.0034991
        k(  105) = (   0.1052632   0.1052632   0.3157895), wk =   0.0034991
        k(  106) = (   0.1052632   0.1052632   0.3684211), wk =   0.0034991
        k(  107) = (   0.1052632   0.1052632   0.4210526), wk =   0.0034991
        k(  108) = (   0.1052632   0.1052632   0.4736842), wk =   0.0034991
        k(  109) = (   0.1052632   0.1578947   0.1578947), wk =   0.0034991
        k(  110) = (   0.1052632   0.1578947   0.2105263), wk =   0.0069981
        k(  111) = (   0.1052632   0.1578947   0.2631579), wk =   0.0069981
        k(  112) = (   0.1052632   0.1578947   0.3157895), wk =   0.0069981
        k(  113) = (   0.1052632   0.1578947   0.3684211), wk =   0.0069981
        k(  114) = (   0.1052632   0.1578947   0.4210526), wk =   0.0069981
        k(  115) = (   0.1052632   0.1578947   0.4736842), wk =   0.0069981
        k(  116) = (   0.1052632   0.2105263   0.2105263), wk =   0.0034991
        k(  117) = (   0.1052632   0.2105263   0.2631579), wk =   0.0069981
        k(  118) = (   0.1052632   0.2105263   0.3157895), wk =   0.0069981
        k(  119) = (   0.1052632   0.2105263   0.3684211), wk =   0.0069981
        k(  120) = (   0.1052632   0.2105263   0.4210526), wk =   0.0069981
        k(  121) = (   0.1052632   0.2105263   0.4736842), wk =   0.0069981
        k(  122) = (   0.1052632   0.2631579   0.2631579), wk =   0.0034991
        k(  123) = (   0.1052632   0.2631579   0.3157895), wk =   0.0069981
        k(  124) = (   0.1052632   0.2631579   0.3684211), wk =   0.0069981
        k(  125) = (   0.1052632   0.2631579   0.4210526), wk =   0.0069981
        k(  126) = (   0.1052632   0.2631579   0.4736842), wk =   0.0069981
        k(  127) = (   0.1052632   0.3157895   0.3157895), wk =   0.0034991
        k(  128) = (   0.1052632   0.3157895   0.3684211), wk =   0.0069981
        k(  129) = (   0.1052632   0.3157895   0.4210526), wk =   0.0069981
        k(  130) = (   0.1052632   0.3157895   0.4736842), wk =   0.0069981
        k(  131) = (   0.1052632   0.3684211   0.3684211), wk =   0.0034991
        k(  132) = (   0.1052632   0.3684211   0.4210526), wk =   0.0069981
        k(  133) = (   0.1052632   0.3684211   0.4736842), wk =   0.0069981
        k(  134) = (   0.1052632   0.4210526   0.4210526), wk =   0.0034991
        k(  135) = (   0.1052632   0.4210526   0.4736842), wk =   0.0069981
        k(  136) = (   0.1052632   0.4736842   0.4736842), wk =   0.0034991
        k(  137) = (   0.1578947   0.1578947   0.1578947), wk =   0.0011664
        k(  138) = (   0.1578947   0.1578947   0.2105263), wk =   0.0034991
        k(  139) = (   0.1578947   0.1578947   0.2631579), wk =   0.0034991
        k(  140) = (   0.1578947   0.1578947   0.3157895), wk =   0.0034991
        k(  141) = (   0.1578947   0.1578947   0.3684211), wk =   0.0034991
        k(  142) = (   0.1578947   0.1578947   0.4210526), wk =   0.0034991
        k(  143) = (   0.1578947   0.1578947   0.4736842), wk =   0.0034991
        k(  144) = (   0.1578947   0.2105263   0.2105263), wk =   0.0034991
        k(  145) = (   0.1578947   0.2105263   0.2631579), wk =   0.0069981
        k(  146) = (   0.1578947   0.2105263   0.3157895), wk =   0.0069981
        k(  147) = (   0.1578947   0.2105263   0.3684211), wk =   0.0069981
        k(  148) = (   0.1578947   0.2105263   0.4210526), wk =   0.0069981
        k(  149) = (   0.1578947   0.2105263   0.4736842), wk =   0.0069981
        k(  150) = (   0.1578947   0.2631579   0.2631579), wk =   0.0034991
        k(  151) = (   0.1578947   0.2631579   0.3157895), wk =   0.0069981
        k(  152) = (   0.1578947   0.2631579   0.3684211), wk =   0.0069981
        k(  153) = (   0.1578947   0.2631579   0.4210526), wk =   0.0069981
        k(  154) = (   0.1578947   0.2631579   0.4736842), wk =   0.0069981
        k(  155) = (   0.1578947   0.3157895   0.3157895), wk =   0.0034991
        k(  156) = (   0.1578947   0.3157895   0.3684211), wk =   0.0069981
        k(  157) = (   0.1578947   0.3157895   0.4210526), wk =   0.0069981
        k(  158) = (   0.1578947   0.3157895   0.4736842), wk =   0.0069981
        k(  159) = (   0.1578947   0.3684211   0.3684211), wk =   0.0034991
        k(  160) = (   0.1578947   0.3684211   0.4210526), wk =   0.0069981
        k(  161) = (   0.1578947   0.3684211   0.4736842), wk =   0.0069981
        k(  162) = (   0.1578947   0.4210526   0.4210526), wk =   0.0034991
        k(  163) = (   0.1578947   0.4210526   0.4736842), wk =   0.0069981
        k(  164) = (   0.1578947   0.4736842   0.4736842), wk =   0.0034991
        k(  165) = (   0.2105263   0.2105263   0.2105263), wk =   0.0011664
        k(  166) = (   0.2105263   0.2105263   0.2631579), wk =   0.0034991
        k(  167) = (   0.2105263   0.2105263   0.3157895), wk =   0.0034991
        k(  168) = (   0.2105263   0.2105263   0.3684211), wk =   0.0034991
        k(  169) = (   0.2105263   0.2105263   0.4210526), wk =   0.0034991
        k(  170) = (   0.2105263   0.2105263   0.4736842), wk =   0.0034991
        k(  171) = (   0.2105263   0.2631579   0.2631579), wk =   0.0034991
        k(  172) = (   0.2105263   0.2631579   0.3157895), wk =   0.0069981
        k(  173) = (   0.2105263   0.2631579   0.3684211), wk =   0.0069981
        k(  174) = (   0.2105263   0.2631579   0.4210526), wk =   0.0069981
        k(  175) = (   0.2105263   0.2631579   0.4736842), wk =   0.0069981
        k(  176) = (   0.2105263   0.3157895   0.3157895), wk =   0.0034991
        k(  177) = (   0.2105263   0.3157895   0.3684211), wk =   0.0069981
        k(  178) = (   0.2105263   0.3157895   0.4210526), wk =   0.0069981
        k(  179) = (   0.2105263   0.3157895   0.4736842), wk =   0.0069981
        k(  180) = (   0.2105263   0.3684211   0.3684211), wk =   0.0034991
        k(  181) = (   0.2105263   0.3684211   0.4210526), wk =   0.0069981
        k(  182) = (   0.2105263   0.3684211   0.4736842), wk =   0.0069981
        k(  183) = (   0.2105263   0.4210526   0.4210526), wk =   0.0034991
        k(  184) = (   0.2105263   0.4210526   0.4736842), wk =   0.0069981
        k(  185) = (   0.2105263   0.4736842   0.4736842), wk =   0.0034991
        k(  186) = (   0.2631579   0.2631579   0.2631579), wk =   0.0011664
        k(  187) = (   0.2631579   0.2631579   0.3157895), wk =   0.0034991
        k(  188) = (   0.2631579   0.2631579   0.3684211), wk =   0.0034991
        k(  189) = (   0.2631579   0.2631579   0.4210526), wk =   0.0034991
        k(  190) = (   0.2631579   0.2631579   0.4736842), wk =   0.0034991
        k(  191) = (   0.2631579   0.3157895   0.3157895), wk =   0.0034991
        k(  192) = (   0.2631579   0.3157895   0.3684211), wk =   0.0069981
        k(  193) = (   0.2631579   0.3157895   0.4210526), wk =   0.0069981
        k(  194) = (   0.2631579   0.3157895   0.4736842), wk =   0.0069981
        k(  195) = (   0.2631579   0.3684211   0.3684211), wk =   0.0034991
        k(  196) = (   0.2631579   0.3684211   0.4210526), wk =   0.0069981
        k(  197) = (   0.2631579   0.3684211   0.4736842), wk =   0.0069981
        k(  198) = (   0.2631579   0.4210526   0.4210526), wk =   0.0034991
        k(  199) = (   0.2631579   0.4210526   0.4736842), wk =   0.0069981
        k(  200) = (   0.2631579   0.4736842   0.4736842), wk =   0.0034991
        k(  201) = (   0.3157895   0.3157895   0.3157895), wk =   0.0011664
        k(  202) = (   0.3157895   0.3157895   0.3684211), wk =   0.0034991
        k(  203) = (   0.3157895   0.3157895   0.4210526), wk =   0.0034991
        k(  204) = (   0.3157895   0.3157895   0.4736842), wk =   0.0034991
        k(  205) = (   0.3157895   0.3684211   0.3684211), wk =   0.0034991
        k(  206) = (   0.3157895   0.3684211   0.4210526), wk =   0.0069981
        k(  207) = (   0.3157895   0.3684211   0.4736842), wk =   0.0069981
        k(  208) = (   0.3157895   0.4210526   0.4210526), wk =   0.0034991
        k(  209) = (   0.3157895   0.4210526   0.4736842), wk =   0.0069981
        k(  210) = (   0.3157895   0.4736842   0.4736842), wk =   0.0034991
        k(  211) = (   0.3684211   0.3684211   0.3684211), wk =   0.0011664
        k(  212) = (   0.3684211   0.3684211   0.4210526), wk =   0.0034991
        k(  213) = (   0.3684211   0.3684211   0.4736842), wk =   0.0034991
        k(  214) = (   0.3684211   0.4210526   0.4210526), wk =   0.0034991
        k(  215) = (   0.3684211   0.4210526   0.4736842), wk =   0.0069981
        k(  216) = (   0.3684211   0.4736842   0.4736842), wk =   0.0034991
        k(  217) = (   0.4210526   0.4210526   0.4210526), wk =   0.0011664
        k(  218) = (   0.4210526   0.4210526   0.4736842), wk =   0.0034991
        k(  219) = (   0.4210526   0.4736842   0.4736842), wk =   0.0034991
        k(  220) = (   0.4736842   0.4736842   0.4736842), wk =   0.0011664

     Dense  grid:    32795 G-vectors     FFT dimensions: (  40,  40,  40)

     Smooth grid:    11633 G-vectors     FFT dimensions: (  30,  30,  30)

     Dynamical RAM for                 wfc:       0.95 MB

     Dynamical RAM for     wfc (w. buffer):     419.56 MB

     Dynamical RAM for           str. fact:       0.50 MB

     Dynamical RAM for           local pot:       0.00 MB

     Dynamical RAM for          nlocal pot:       1.59 MB

     Dynamical RAM for                qrad:       1.52 MB

     Dynamical RAM for          rho,v,vnew:       5.93 MB

     Dynamical RAM for               rhoin:       1.98 MB

     Dynamical RAM for            rho*nmix:      16.01 MB

     Dynamical RAM for           G-vectors:       1.97 MB

     Dynamical RAM for          h,s,v(r/c):       0.34 MB

     Dynamical RAM for          <psi|beta>:       0.05 MB

     Dynamical RAM for                 psi:       1.90 MB

     Dynamical RAM for                hpsi:       1.90 MB

     Dynamical RAM for                spsi:       1.90 MB

     Dynamical RAM for      wfcinit/wfcrot:       2.36 MB

     Dynamical RAM for           addusdens:      95.58 MB

     Dynamical RAM for          addusforce:      98.61 MB

     Dynamical RAM for         addusstress:     101.33 MB

     Estimated static dynamical RAM per process >     436.98 MB

     Estimated max dynamical RAM per process >     554.33 MB

     Check: negative core charge=   -0.000009
     Generating pointlists ...
     new r_m :   0.2917 (alat units)  1.9182 (a.u.) for type    1

     Initial potential from superposition of free atoms

     starting charge   64.00000, renormalised to   72.00000
     Starting wfcs are   52 randomized atomic wfcs

     total cpu time spent up to now is        3.2 secs

     Self-consistent Calculation
[tb_dev] Currently allocated     6.99E+00 Mbytes, locked:    0 /  10
[tb_pin] Currently allocated     0.00E+00 Mbytes, locked:    0 /   0

     iteration #  1     ecut=    45.00 Ry     beta= 0.40
     Davidson diagonalization with overlap

---- Real-time Memory Report at c_bands before calling an iterative solver
          2023 MiB given to the printing process from OS
             0 MiB allocation reported by mallinfo(arena+hblkhd)
         10370 MiB available memory on the node where the printing process lives
     GPU memory used/free/total (MiB): 1078 / 23024 / 24102
------------------
     ethr =  1.00E-02,  avg # of iterations =  3.2

     total cpu time spent up to now is       12.5 secs

     total energy              =   -1335.08217758 Ry
     estimated scf accuracy    <     122.52787491 Ry

     total magnetization       =     4.50 Bohr mag/cell
     absolute magnetization    =     4.80 Bohr mag/cell
[tb_dev] Currently allocated     1.86E+02 Mbytes, locked:    0 /  15
[tb_pin] Currently allocated     1.11E+00 Mbytes, locked:    0 /   2

     iteration #  2     ecut=    45.00 Ry     beta= 0.40
     Davidson diagonalization with overlap

---- Real-time Memory Report at c_bands before calling an iterative solver
          2041 MiB given to the printing process from OS
             0 MiB allocation reported by mallinfo(arena+hblkhd)
         10367 MiB available memory on the node where the printing process lives
     GPU memory used/free/total (MiB): 1288 / 22814 / 24102
------------------
     ethr =  1.00E-02,  avg # of iterations =  3.3
     Minimization algorithm failed to find Fermi energy: reverting to bisection
     Possible cause: smearing is larger than the electronic band-gap.

     total cpu time spent up to now is       23.2 secs

     total energy              =   -1365.77408318 Ry
     estimated scf accuracy    <      37.22565363 Ry

     total magnetization       =     0.00 Bohr mag/cell
     absolute magnetization    =     1.24 Bohr mag/cell
[tb_dev] Currently allocated     1.86E+02 Mbytes, locked:    0 /  15
[tb_pin] Currently allocated     1.11E+00 Mbytes, locked:    0 /   2

     iteration #  3     ecut=    45.00 Ry     beta= 0.40
     Davidson diagonalization with overlap

---- Real-time Memory Report at c_bands before calling an iterative solver
          2043 MiB given to the printing process from OS
             0 MiB allocation reported by mallinfo(arena+hblkhd)
         10335 MiB available memory on the node where the printing process lives
     GPU memory used/free/total (MiB): 1282 / 22820 / 24102
------------------
     ethr =  1.00E-02,  avg # of iterations =  2.2

     total cpu time spent up to now is       31.6 secs

     total energy              =   -1372.17072089 Ry
     estimated scf accuracy    <       0.59039535 Ry

     total magnetization       =     4.71 Bohr mag/cell
     absolute magnetization    =     5.52 Bohr mag/cell
[tb_dev] Currently allocated     1.86E+02 Mbytes, locked:    0 /  15
[tb_pin] Currently allocated     1.11E+00 Mbytes, locked:    0 /   2

     iteration #  4     ecut=    45.00 Ry     beta= 0.40
     Davidson diagonalization with overlap

---- Real-time Memory Report at c_bands before calling an iterative solver
          2044 MiB given to the printing process from OS
             0 MiB allocation reported by mallinfo(arena+hblkhd)
         10344 MiB available memory on the node where the printing process lives
     GPU memory used/free/total (MiB): 1282 / 22820 / 24102
------------------
     ethr =  8.20E-04,  avg # of iterations =  2.0

     total cpu time spent up to now is       38.6 secs

     total energy              =   -1372.32203944 Ry
     estimated scf accuracy    <       0.22643878 Ry

     total magnetization       =     3.43 Bohr mag/cell
     absolute magnetization    =     4.23 Bohr mag/cell
[tb_dev] Currently allocated     1.86E+02 Mbytes, locked:    0 /  15
[tb_pin] Currently allocated     1.11E+00 Mbytes, locked:    0 /   2

     iteration #  5     ecut=    45.00 Ry     beta= 0.40
     Davidson diagonalization with overlap

---- Real-time Memory Report at c_bands before calling an iterative solver
          2045 MiB given to the printing process from OS
             0 MiB allocation reported by mallinfo(arena+hblkhd)
         13360 MiB available memory on the node where the printing process lives
     GPU memory used/free/total (MiB): 1292 / 22810 / 24102
------------------
     ethr =  3.14E-04,  avg # of iterations =  2.0

     total cpu time spent up to now is       45.6 secs

     total energy              =   -1372.33280555 Ry
     estimated scf accuracy    <       0.20667000 Ry

     total magnetization       =     3.02 Bohr mag/cell
     absolute magnetization    =     3.66 Bohr mag/cell
[tb_dev] Currently allocated     1.86E+02 Mbytes, locked:    0 /  15
[tb_pin] Currently allocated     1.11E+00 Mbytes, locked:    0 /   2

     iteration #  6     ecut=    45.00 Ry     beta= 0.40
     Davidson diagonalization with overlap

---- Real-time Memory Report at c_bands before calling an iterative solver
          2045 MiB given to the printing process from OS
             0 MiB allocation reported by mallinfo(arena+hblkhd)
         13335 MiB available memory on the node where the printing process lives
     GPU memory used/free/total (MiB): 1286 / 22816 / 24102
------------------
     ethr =  2.87E-04,  avg # of iterations =  1.1

     total cpu time spent up to now is       50.9 secs

     total energy              =   -1372.34781729 Ry
     estimated scf accuracy    <       0.00950234 Ry

     total magnetization       =     2.71 Bohr mag/cell
     absolute magnetization    =     3.29 Bohr mag/cell
[tb_dev] Currently allocated     1.86E+02 Mbytes, locked:    0 /  15
[tb_pin] Currently allocated     1.11E+00 Mbytes, locked:    0 /   2

     iteration #  7     ecut=    45.00 Ry     beta= 0.40
     Davidson diagonalization with overlap

---- Real-time Memory Report at c_bands before calling an iterative solver
          2046 MiB given to the printing process from OS
             0 MiB allocation reported by mallinfo(arena+hblkhd)
         13310 MiB available memory on the node where the printing process lives
     GPU memory used/free/total (MiB): 1294 / 22808 / 24102
------------------
     ethr =  1.32E-05,  avg # of iterations =  3.2

     total cpu time spent up to now is       61.2 secs

     total energy              =   -1372.34837839 Ry
     estimated scf accuracy    <       0.01524923 Ry

     total magnetization       =     2.71 Bohr mag/cell
     absolute magnetization    =     3.22 Bohr mag/cell
[tb_dev] Currently allocated     1.86E+02 Mbytes, locked:    0 /  15
[tb_pin] Currently allocated     1.11E+00 Mbytes, locked:    0 /   2

     iteration #  8     ecut=    45.00 Ry     beta= 0.40
     Davidson diagonalization with overlap

---- Real-time Memory Report at c_bands before calling an iterative solver
          2047 MiB given to the printing process from OS
             0 MiB allocation reported by mallinfo(arena+hblkhd)
         13298 MiB available memory on the node where the printing process lives
     GPU memory used/free/total (MiB): 1292 / 22810 / 24102
------------------
     ethr =  1.32E-05,  avg # of iterations =  2.1

     total cpu time spent up to now is       68.3 secs

     total energy              =   -1372.35135996 Ry
     estimated scf accuracy    <       0.00048313 Ry

     total magnetization       =     2.65 Bohr mag/cell
     absolute magnetization    =     3.06 Bohr mag/cell
[tb_dev] Currently allocated     1.86E+02 Mbytes, locked:    0 /  15
[tb_pin] Currently allocated     1.11E+00 Mbytes, locked:    0 /   2

     iteration #  9     ecut=    45.00 Ry     beta= 0.40
     Davidson diagonalization with overlap

---- Real-time Memory Report at c_bands before calling an iterative solver
          2047 MiB given to the printing process from OS
             0 MiB allocation reported by mallinfo(arena+hblkhd)
         13324 MiB available memory on the node where the printing process lives
     GPU memory used/free/total (MiB): 1284 / 22818 / 24102
------------------
     ethr =  6.71E-07,  avg # of iterations =  1.8

     total cpu time spent up to now is       74.9 secs

     total energy              =   -1372.35150619 Ry
     estimated scf accuracy    <       0.00015940 Ry

     total magnetization       =     2.61 Bohr mag/cell
     absolute magnetization    =     3.00 Bohr mag/cell
[tb_dev] Currently allocated     1.86E+02 Mbytes, locked:    0 /  15
[tb_pin] Currently allocated     1.11E+00 Mbytes, locked:    0 /   2

     iteration # 10     ecut=    45.00 Ry     beta= 0.40
     Davidson diagonalization with overlap

---- Real-time Memory Report at c_bands before calling an iterative solver
          2048 MiB given to the printing process from OS
             0 MiB allocation reported by mallinfo(arena+hblkhd)
         13314 MiB available memory on the node where the printing process lives
     GPU memory used/free/total (MiB): 1284 / 22818 / 24102
------------------
     ethr =  2.21E-07,  avg # of iterations =  1.6

     total cpu time spent up to now is       81.4 secs

     total energy              =   -1372.35154617 Ry
     estimated scf accuracy    <       0.00000324 Ry

     total magnetization       =     2.59 Bohr mag/cell
     absolute magnetization    =     2.96 Bohr mag/cell
[tb_dev] Currently allocated     1.86E+02 Mbytes, locked:    0 /  15
[tb_pin] Currently allocated     1.11E+00 Mbytes, locked:    0 /   2

     iteration # 11     ecut=    45.00 Ry     beta= 0.40
     Davidson diagonalization with overlap

---- Real-time Memory Report at c_bands before calling an iterative solver
          2048 MiB given to the printing process from OS
             0 MiB allocation reported by mallinfo(arena+hblkhd)
         13324 MiB available memory on the node where the printing process lives
     GPU memory used/free/total (MiB): 1288 / 22814 / 24102
------------------
     ethr =  4.50E-09,  avg # of iterations =  2.6

     total cpu time spent up to now is       89.7 secs

     total energy              =   -1372.35154755 Ry
     estimated scf accuracy    <       0.00000151 Ry

     total magnetization       =     2.59 Bohr mag/cell
     absolute magnetization    =     2.95 Bohr mag/cell
[tb_dev] Currently allocated     1.86E+02 Mbytes, locked:    0 /  15
[tb_pin] Currently allocated     1.11E+00 Mbytes, locked:    0 /   2

     iteration # 12     ecut=    45.00 Ry     beta= 0.40
     Davidson diagonalization with overlap

---- Real-time Memory Report at c_bands before calling an iterative solver
          2048 MiB given to the printing process from OS
             0 MiB allocation reported by mallinfo(arena+hblkhd)
         13299 MiB available memory on the node where the printing process lives
     GPU memory used/free/total (MiB): 1282 / 22820 / 24102
------------------
     ethr =  2.09E-09,  avg # of iterations =  2.0

     total cpu time spent up to now is       96.6 secs

     total energy              =   -1372.35154786 Ry
     estimated scf accuracy    <       0.00000009 Ry

     total magnetization       =     2.59 Bohr mag/cell
     absolute magnetization    =     2.95 Bohr mag/cell
[tb_dev] Currently allocated     1.86E+02 Mbytes, locked:    0 /  15
[tb_pin] Currently allocated     1.11E+00 Mbytes, locked:    0 /   2

     iteration # 13     ecut=    45.00 Ry     beta= 0.40
     Davidson diagonalization with overlap

---- Real-time Memory Report at c_bands before calling an iterative solver
          2048 MiB given to the printing process from OS
             0 MiB allocation reported by mallinfo(arena+hblkhd)
         13282 MiB available memory on the node where the printing process lives
     GPU memory used/free/total (MiB): 1286 / 22816 / 24102
------------------
     ethr =  1.21E-10,  avg # of iterations =  1.2

     total cpu time spent up to now is      102.0 secs

     total energy              =   -1372.35154786 Ry
     estimated scf accuracy    <       0.00000002 Ry

     total magnetization       =     2.59 Bohr mag/cell
     absolute magnetization    =     2.95 Bohr mag/cell
[tb_dev] Currently allocated     1.86E+02 Mbytes, locked:    0 /  15
[tb_pin] Currently allocated     1.11E+00 Mbytes, locked:    0 /   2

     iteration # 14     ecut=    45.00 Ry     beta= 0.40
     Davidson diagonalization with overlap

---- Real-time Memory Report at c_bands before calling an iterative solver
          2048 MiB given to the printing process from OS
             0 MiB allocation reported by mallinfo(arena+hblkhd)
         13290 MiB available memory on the node where the printing process lives
     GPU memory used/free/total (MiB): 1288 / 22814 / 24102
------------------
     ethr =  2.84E-11,  avg # of iterations =  2.1

     total cpu time spent up to now is      109.2 secs

     total energy              =   -1372.35154786 Ry
     estimated scf accuracy    <          3.8E-09 Ry

     total magnetization       =     2.59 Bohr mag/cell
     absolute magnetization    =     2.95 Bohr mag/cell
[tb_dev] Currently allocated     1.86E+02 Mbytes, locked:    0 /  15
[tb_pin] Currently allocated     1.11E+00 Mbytes, locked:    0 /   2

     iteration # 15     ecut=    45.00 Ry     beta= 0.40
     Davidson diagonalization with overlap

---- Real-time Memory Report at c_bands before calling an iterative solver
          2048 MiB given to the printing process from OS
             0 MiB allocation reported by mallinfo(arena+hblkhd)
         13293 MiB available memory on the node where the printing process lives
     GPU memory used/free/total (MiB): 1282 / 22820 / 24102
------------------
     ethr =  5.33E-12,  avg # of iterations =  2.1
 
     Magnetic moment per site  (integrated on atomic sphere of radius R)
     atom   1 (R=0.292)  charge= 16.6708  magn=  0.6851
     atom   2 (R=0.292)  charge= 16.6708  magn=  0.6851
     atom   3 (R=0.292)  charge= 16.6708  magn=  0.6851
     atom   4 (R=0.292)  charge= 16.6708  magn=  0.6851

     total cpu time spent up to now is      116.5 secs

     End of self-consistent calculation

 ------ SPIN UP ------------


          k = 0.0000 0.0000 0.0000 (  1419 PWs)   bands (ev):

   -85.0895 -85.0372 -85.0372 -85.0372 -45.7077 -45.7077 -45.7077 -45.5665
   -45.5665 -45.5665 -45.5665 -45.5665 -45.5665 -45.4742 -45.4742 -45.4742
     9.0180  13.4696  13.4696  13.4696  13.9895  13.9895  13.9895  15.8663
    15.8663  15.8663  17.0644  17.0644  17.8158  17.8158  17.8158  17.9538
    17.9538  17.9538  17.9538  17.9538  17.9538  20.7570  20.7570  20.7570
    27.7963  27.7963  27.7963

     occupation numbers 
     1.0000   1.0000   1.0000   1.0000   1.0000   1.0000   1.0000   1.0000
     1.0000   1.0000   1.0000   1.0000   1.0000   1.0000   1.0000   1.0000
     1.0000   1.0000   1.0000   1.0000   1.0000   1.0000   1.0000   1.0000
     1.0000   1.0000   1.0000   1.0000   1.0000   1.0000   1.0000   1.0020
     1.0020   1.0020   1.0020   1.0020   1.0020   0.0000   0.0000   0.0000
     0.0000   0.0000   0.0000

          k = 0.0000 0.0000 0.0526 (  1406 PWs)   bands (ev):

   -85.0891 -85.0376 -85.0372 -85.0372 -45.7068 -45.7068 -45.7062 -45.5674
   -45.5674 -45.5665 -45.5665 -45.5658 -45.5658 -45.4758 -45.4748 -45.4748
     9.0553  13.4729  13.4894  13.4894  14.0013  14.0025  14.0025  15.8523
    15.8770  15.8770  17.0515  17.0694  17.7990  17.7990  17.8106  17.8577
    17.8577  17.9343  17.9343  17.9539  17.9539  20.5548  20.8837  20.8837
    27.8045  27.8045  28.0612

     occupation numbers 
     1.0000   1.0000   1.0000   1.0000   1.0000   1.0000   1.0000   1.0000
     1.0000   1.0000   1.0000   1.0000   1.0000   1.0000   1.0000   1.0000
     1.0000   1.0000   1.0000   1.0000   1.0000   1.0000   1.0000   1.0000
     1.0000   1.0000   1.0000   1.0000   1.0000   1.0000   1.0000   1.0001
     1.0001   1.0012   1.0012   1.0020   1.0020   0.0000   0.0000   0.0000
     0.0000   0.0000   0.0000

          k = 0.0000 0.0000 0.1053 (  1418 PWs)   bands (ev):

   -85.0881 -85.0387 -85.0372 -85.0372 -45.7039 -45.7039 -45.7017 -45.5703
   -45.5703 -45.5667 -45.5666 -45.5640 -45.5640 -45.4807 -45.4767 -45.4767
     9.1669  13.4803  13.5480  13.5480  14.0362  14.0411  14.0411  15.8107
    15.9090  15.9090  17.0135  17.0841  17.6102  17.6102  17.7494  17.7495
    17.7948  17.8769  17.8769  17.9540  17.9540  20.0280  21.2226  21.2226
    27.8296  27.8296  28.7771

     occupation numbers 
     1.0000   1.0000   1.0000   1.0000   1.0000   1.0000   1.0000   1.0000
     1.0000   1.0000   1.0000   1.0000   1.0000   1.0000   1.0000   1.0000
     1.0000   1.0000   1.0000   1.0000   1.0000   1.0000   1.0000   1.0000
     1.0000   1.0000   1.0000   1.0000   1.0000   1.0000   1.0000   1.0000
     1.0000   1.0002   1.0002   1.0020   1.0020   0.0000   0.0000   0.0000
     0.0000   0.0000   0.0000

          k = 0.0000 0.0000 0.1579 (  1430 PWs)   bands (ev):

   -85.0863 -85.0404 -85.0372 -85.0372 -45.6993 -45.6993 -45.6942 -45.5750
   -45.5750 -45.5669 -45.5669 -45.5609 -45.5609 -45.4888 -45.4797 -45.4797
     9.3515  13.4837  13.6420  13.6420  14.0936  14.1057  14.1057  15.7431
    15.9620  15.9620  16.9520  17.1083  17.2833  17.2833  17.6690  17.6690
    17.7690  17.7850  17.7850  17.9540  17.9540  19.3294  21.7016  21.7016
    27.8725  27.8725  29.7964

     occupation numbers 
     1.0000   1.0000   1.0000   1.0000   1.0000   1.0000   1.0000   1.0000
     1.0000   1.0000   1.0000   1.0000   1.0000   1.0000   1.0000   1.0000
     1.0000   1.0000   1.0000   1.0000   1.0000   1.0000   1.0000   1.0000
     1.0000   1.0000   1.0000   1.0000   1.0000   1.0000   1.0000   1.0000
     1.0000   1.0000   1.0000   1.0020   1.0020   0.0000   0.0000   0.0000
     0.0000   0.0000   0.0000

          k = 0.0000 0.0000 0.2105 (  1434 PWs)   bands (ev):

   -85.0840 -85.0427 -85.0372 -85.0372 -45.6929 -45.6929 -45.6840 -45.5814
   -45.5814 -45.5671 -45.5671 -45.5567 -45.5567 -45.4997 -45.4839 -45.4839
     9.6067  13.4679  13.7657  13.7657  14.1723  14.1967  14.1967  15.6518
    16.0355  16.0355  16.8704  16.9271  16.9271  17.1413  17.5618  17.5618
    17.6638  17.6638  17.7341  17.9542  17.9542  18.5838  22.2701  22.2701
    27.9351  27.9351  30.9269

     occupation numbers 
     1.0000   1.0000   1.0000   1.0000   1.0000   1.0000   1.0000   1.0000
     1.0000   1.0000   1.0000   1.0000   1.0000   1.0000   1.0000   1.0000
     1.0000   1.0000   1.0000   1.0000   1.0000   1.0000   1.0000   1.0000
     1.0000   1.0000   1.0000   1.0000   1.0000   1.0000   1.0000   1.0000
     1.0000   1.0000   1.0000   1.0020   1.0020   0.0631   0.0000   0.0000
     0.0000   0.0000   0.0000

          k = 0.0000 0.0000 0.2632 (  1438 PWs)   bands (ev):

   -85.0810 -85.0457 -85.0372 -85.0372 -45.6850 -45.6850 -45.6713 -45.5893
   -45.5893 -45.5674 -45.5674 -45.5516 -45.5516 -45.5131 -45.4891 -45.4891
     9.9288  13.4087  13.9105  13.9105  14.2705  14.3141  14.3141  15.5397
    16.1287  16.1287  16.5685  16.5685  16.7733  17.1823  17.4345  17.4345
    17.5194  17.5194  17.6910  17.8782  17.9544  17.9544  22.9007  22.9007
    28.0189  28.0189  30.0544

     occupation numbers 
     1.0000   1.0000   1.0000   1.0000   1.0000   1.0000   1.0000   1.0000
     1.0000   1.0000   1.0000   1.0000   1.0000   1.0000   1.0000   1.0000
     1.0000   1.0000   1.0000   1.0000   1.0000   1.0000   1.0000   1.0000
     1.0000   1.0000   1.0000   1.0000   1.0000   1.0000   1.0000   1.0000
     1.0000   1.0000   1.0000   1.0002   1.0020   1.0020   0.0000   0.0000
     0.0000   0.0000   0.0000

          k = 0.0000 0.0000 0.3158 (  1434 PWs)   bands (ev):

   -85.0776 -85.0491 -85.0372 -85.0372 -45.6758 -45.6758 -45.6564 -45.5986
   -45.5986 -45.5677 -45.5677 -45.5456 -45.5456 -45.5287 -45.4951 -45.4951
    10.3125  13.2732  14.0641  14.0641  14.3862  14.4584  14.4584  15.4107
    16.2213  16.2213  16.2407  16.2407  16.6678  17.2302  17.2790  17.2973
    17.2973  17.3586  17.3586  17.6410  17.9546  17.9546  23.5786  23.5786
    28.1245  28.1245  29.1787

     occupation numbers 
     1.0000   1.0000   1.0000   1.0000   1.0000   1.0000   1.0000   1.0000
     1.0000   1.0000   1.0000   1.0000   1.0000   1.0000   1.0000   1.0000
[...]
     1.0000   1.0000   1.0000   1.0000   1.0000   1.0000   1.0000   1.0000
     0.5786   0.3314   0.3314   0.2538   0.0000   0.0000   0.0000   0.0000
     0.0000   0.0000   0.0000

          k = 0.3684 0.3684 0.3684 (  1448 PWs)   bands (ev):

   -84.1147 -84.1060 -84.1060 -84.1060 -44.8014 -44.8014 -44.8014 -44.7776
   -44.6230 -44.6230 -44.6230 -44.6077 -44.6077 -44.6077 -44.5923 -44.5923
    13.1276  14.1051  14.1051  14.1051  16.1082  16.1082  16.1082  16.5888
    16.6621  16.6621  16.7522  16.7522  16.7522  16.8395  16.8395  16.8395
    18.3577  18.3577  18.6414  18.6414  18.6414  20.1122  20.1122  20.1123
    25.2850  25.2850  25.2850

     occupation numbers 
     1.0000   1.0000   1.0000   1.0000   1.0000   1.0000   1.0000   1.0000
     1.0000   1.0000   1.0000   1.0000   1.0000   1.0000   1.0000   1.0000
     1.0000   1.0000   1.0000   1.0000   1.0000   1.0000   1.0000   1.0000
     1.0000   1.0000   1.0000   1.0000   1.0000   1.0000   1.0000   1.0000
     0.8066   0.8066   0.0197   0.0197   0.0197   0.0000   0.0000   0.0000
     0.0000   0.0000   0.0000

          k = 0.3684 0.3684 0.4211 (  1453 PWs)   bands (ev):

   -84.1130 -84.1077 -84.1060 -84.1060 -44.8058 -44.8058 -44.8016 -44.7870
   -44.6207 -44.6207 -44.6123 -44.6057 -44.6057 -44.6047 -44.5953 -44.5936
    13.3246  13.9127  14.0794  14.0794  16.1886  16.1886  16.2722  16.6114
    16.6516  16.7469  16.7601  16.7828  16.7828  16.8197  16.8809  16.8809
    18.4254  18.4622  18.6198  18.6198  18.6358  19.5138  20.1176  20.1176
    24.9409  24.9409  25.6500

     occupation numbers 
     1.0000   1.0000   1.0000   1.0000   1.0000   1.0000   1.0000   1.0000
     1.0000   1.0000   1.0000   1.0000   1.0000   1.0000   1.0000   1.0000
     1.0000   1.0000   1.0000   1.0000   1.0000   1.0000   1.0000   1.0000
     1.0000   1.0000   1.0000   1.0000   1.0000   1.0000   1.0000   1.0000
     0.5151   0.3627   0.0313   0.0313   0.0223   0.0000   0.0000   0.0000
     0.0000   0.0000   0.0000

          k = 0.3684 0.3684 0.4737 (  1450 PWs)   bands (ev):

   -84.1113 -84.1095 -84.1060 -84.1060 -44.8080 -44.8080 -44.7993 -44.7943
   -44.6198 -44.6198 -44.6044 -44.6044 -44.6036 -44.6016 -44.5984 -44.5974
    13.5222  13.7185  14.0658  14.0658  16.2300  16.2300  16.4168  16.5313
    16.6648  16.7013  16.7544  16.7544  16.8392  16.8564  16.9597  16.9597
    18.5450  18.5964  18.5964  18.6034  18.6368  19.0085  20.1218  20.1218
    24.7655  24.7655  26.0969

     occupation numbers 
     1.0000   1.0000   1.0000   1.0000   1.0000   1.0000   1.0000   1.0000
     1.0000   1.0000   1.0000   1.0000   1.0000   1.0000   1.0000   1.0000
     1.0000   1.0000   1.0000   1.0000   1.0000   1.0000   1.0000   1.0000
     1.0000   1.0000   1.0000   1.0000   1.0000   1.0000   1.0000   1.0000
     0.1220   0.0498   0.0498   0.0435   0.0219   0.0000   0.0000   0.0000
     0.0000   0.0000   0.0000

          k = 0.3684 0.4211 0.4211 (  1458 PWs)   bands (ev):

   -84.1117 -84.1074 -84.1074 -84.1063 -44.8097 -44.8071 -44.8071 -44.7956
   -44.6164 -44.6114 -44.6114 -44.6036 -44.6029 -44.6029 -44.5972 -44.5941
    13.4675  13.9188  13.9188  14.0172  16.2787  16.3328  16.3328  16.6014
    16.6192  16.7094  16.7094  16.7229  16.9512  16.9945  16.9945  17.0324
    18.4330  18.5740  18.6104  18.6179  18.6179  19.5609  19.5609  19.9528
    24.7529  25.2055  25.2055

     occupation numbers 
     1.0000   1.0000   1.0000   1.0000   1.0000   1.0000   1.0000   1.0000
     1.0000   1.0000   1.0000   1.0000   1.0000   1.0000   1.0000   1.0000
     1.0000   1.0000   1.0000   1.0000   1.0000   1.0000   1.0000   1.0000
     1.0000   1.0000   1.0000   1.0000   1.0000   1.0000   1.0000   1.0000
     0.4820   0.0752   0.0379   0.0325   0.0325   0.0000   0.0000   0.0000
     0.0000   0.0000   0.0000

          k = 0.3684 0.4211 0.4737 (  1452 PWs)   bands (ev):

   -84.1102 -84.1088 -84.1070 -84.1067 -44.8112 -44.8104 -44.8058 -44.8019
   -44.6137 -44.6121 -44.6046 -44.6020 -44.6017 -44.6003 -44.5995 -44.5962
    13.6137  13.7638  13.9370  13.9696  16.3355  16.3540  16.4530  16.5434
    16.6257  16.6564  16.6841  16.6884  17.0700  17.0716  17.1109  17.1230
    18.5050  18.5813  18.5904  18.5911  18.7526  19.0830  19.6566  19.7917
    24.7433  24.8990  25.5768

     occupation numbers 
     1.0000   1.0000   1.0000   1.0000   1.0000   1.0000   1.0000   1.0000
     1.0000   1.0000   1.0000   1.0000   1.0000   1.0000   1.0000   1.0000
     1.0000   1.0000   1.0000   1.0000   1.0000   1.0000   1.0000   1.0000
     1.0000   1.0000   1.0000   1.0000   1.0000   1.0000   1.0000   1.0000
     0.2177   0.0660   0.0558   0.0551   0.0011   0.0000   0.0000   0.0000
     0.0000   0.0000   0.0000

          k = 0.3684 0.4737 0.4737 (  1452 PWs)   bands (ev):

   -84.1092 -84.1081 -84.1081 -84.1074 -44.8119 -44.8101 -44.8101 -44.8072
   -44.6096 -44.6067 -44.6067 -44.6031 -44.5999 -44.5988 -44.5988 -44.5967
    13.7121  13.8193  13.8193  13.8875  16.4123  16.4525  16.4525  16.5191
    16.6127  16.6355  16.6355  16.6468  17.2127  17.2139  17.2139  17.2256
    18.5029  18.5516  18.5516  18.5632  18.9469  19.2458  19.2458  19.4855
    24.8860  25.1695  25.1695

     occupation numbers 
     1.0000   1.0000   1.0000   1.0000   1.0000   1.0000   1.0000   1.0000
     1.0000   1.0000   1.0000   1.0000   1.0000   1.0000   1.0000   1.0000
     1.0000   1.0000   1.0000   1.0000   1.0000   1.0000   1.0000   1.0000
     1.0000   1.0000   1.0000   1.0000   1.0000   1.0000   1.0000   1.0000
     0.2240   0.1098   0.1098   0.0907   0.0000   0.0000   0.0000   0.0000
     0.0000   0.0000   0.0000

          k = 0.4211 0.4211 0.4211 (  1448 PWs)   bands (ev):

   -84.1106 -84.1073 -84.1073 -84.1073 -44.8121 -44.8121 -44.8121 -44.8034
   -44.6076 -44.6076 -44.6076 -44.6017 -44.6017 -44.6017 -44.5960 -44.5960
    13.5591  13.8864  13.8864  13.8864  16.3984  16.3984  16.3984  16.5925
    16.5925  16.6560  16.6560  16.6560  17.2089  17.2089  17.2089  17.2272
    18.5212  18.5212  18.6297  18.6297  18.6297  19.4437  19.4437  19.4437
    24.8834  24.8834  24.8834

     occupation numbers 
     1.0000   1.0000   1.0000   1.0000   1.0000   1.0000   1.0000   1.0000
     1.0000   1.0000   1.0000   1.0000   1.0000   1.0000   1.0000   1.0000
     1.0000   1.0000   1.0000   1.0000   1.0000   1.0000   1.0000   1.0000
     1.0000   1.0000   1.0000   1.0000   1.0000   1.0000   1.0000   1.0000
     0.1743   0.1743   0.0254   0.0254   0.0254   0.0000   0.0000   0.0000
     0.0000   0.0000   0.0000

          k = 0.4211 0.4211 0.4737 (  1444 PWs)   bands (ev):

   -84.1095 -84.1084 -84.1073 -84.1073 -44.8146 -44.8146 -44.8118 -44.8088
   -44.6063 -44.6063 -44.6012 -44.6006 -44.6006 -44.5998 -44.5979 -44.5973
    13.6583  13.7669  13.8695  13.8695  16.4332  16.4332  16.4920  16.5565
    16.5899  16.6113  16.6268  16.6268  17.3473  17.3484  17.3484  17.3787
    18.5846  18.6152  18.6152  18.6211  18.6374  18.9741  19.3762  19.3762
    24.7212  24.7212  25.1494

     occupation numbers 
     1.0000   1.0000   1.0000   1.0000   1.0000   1.0000   1.0000   1.0000
     1.0000   1.0000   1.0000   1.0000   1.0000   1.0000   1.0000   1.0000
     1.0000   1.0000   1.0000   1.0000   1.0000   1.0000   1.0000   1.0000
     1.0000   1.0000   1.0000   1.0000   1.0000   1.0000   1.0000   1.0000
     0.0621   0.0344   0.0344   0.0305   0.0216   0.0000   0.0000   0.0000
     0.0000   0.0000   0.0000

          k = 0.4211 0.4737 0.4737 (  1444 PWs)   bands (ev):

   -84.1088 -84.1081 -84.1081 -84.1077 -44.8162 -44.8153 -44.8153 -44.8134
   -44.6032 -44.6016 -44.6016 -44.5992 -44.5992 -44.5988 -44.5988 -44.5973
    13.7145  13.7845  13.7845  13.8185  16.4855  16.5052  16.5052  16.5494
    16.5716  16.5872  16.5872  16.5925  17.5185  17.5279  17.5279  17.5659
    18.5705  18.6055  18.6055  18.6073  18.7328  18.9871  18.9871  19.1310
    24.7115  24.8579  24.8580

     occupation numbers 
     1.0000   1.0000   1.0000   1.0000   1.0000   1.0000   1.0000   1.0000
     1.0000   1.0000   1.0000   1.0000   1.0000   1.0000   1.0000   1.0000
     1.0000   1.0000   1.0000   1.0000   1.0000   1.0000   1.0000   1.0000
     1.0000   1.0000   1.0000   1.0000   1.0000   1.0000   1.0000   1.0000
     0.0799   0.0418   0.0418   0.0403   0.0020   0.0000   0.0000   0.0000
     0.0000   0.0000   0.0000

          k = 0.4737 0.4737 0.4737 (  1466 PWs)   bands (ev):

   -84.1084 -84.1081 -84.1081 -84.1081 -44.8180 -44.8180 -44.8180 -44.8170
   -44.5992 -44.5992 -44.5992 -44.5986 -44.5986 -44.5986 -44.5979 -44.5979
    13.7321  13.7665  13.7665  13.7665  16.5332  16.5332  16.5332  16.5543
    16.5543  16.5614  16.5614  16.5614  17.7692  17.7692  17.7692  17.8214
    18.6112  18.6112  18.6236  18.6236  18.6236  18.7837  18.7837  18.7837
    24.7017  24.7017  24.7017

     occupation numbers 
     1.0000   1.0000   1.0000   1.0000   1.0000   1.0000   1.0000   1.0000
     1.0000   1.0000   1.0000   1.0000   1.0000   1.0000   1.0000   1.0000
     1.0000   1.0000   1.0000   1.0000   1.0000   1.0000   1.0000   1.0000
     1.0000   1.0000   1.0000   1.0000   1.0000   1.0000   1.0000   1.0000
     0.0373   0.0373   0.0290   0.0290   0.0290   0.0004   0.0004   0.0004
     0.0000   0.0000   0.0000

     the Fermi energy is    18.4526 ev

!    total energy              =   -1372.35154786 Ry
     estimated scf accuracy    <          6.0E-10 Ry
     smearing contrib. (-TS)   =      -0.00094698 Ry
     internal energy E=F+TS    =   -1372.35060088 Ry

     The total energy is F=E-TS. E is the sum of the following terms:
     one-electron contribution =    -750.87663053 Ry
     hartree contribution      =     422.89415109 Ry
     xc contribution           =    -140.81609154 Ry
     ewald contribution        =    -903.55202991 Ry

     total magnetization       =     2.59 Bohr mag/cell
     absolute magnetization    =     2.95 Bohr mag/cell

     convergence has been achieved in  15 iterations

     Forces acting on atoms (cartesian axes, Ry/au):

     atom    1 type  1   force =     0.00000000    0.00000000    0.00000000
     atom    2 type  1   force =     0.00000000    0.00000000    0.00000000
     atom    3 type  1   force =     0.00000000    0.00000000    0.00000000
     atom    4 type  1   force =     0.00000000    0.00000000    0.00000000
     The non-local contrib.  to forces
     atom    1 type  1   force =     0.00000000    0.00000000    0.00000000
     atom    2 type  1   force =     0.00000000    0.00000000    0.00000000
     atom    3 type  1   force =     0.00000000    0.00000000    0.00000000
     atom    4 type  1   force =     0.00000000    0.00000000    0.00000000
     The ionic contribution  to forces
     atom    1 type  1   force =    -0.00000000   -0.00000000   -0.00000000
     atom    2 type  1   force =    -0.00000000    0.00000000    0.00000000
     atom    3 type  1   force =     0.00000000   -0.00000000    0.00000000
     atom    4 type  1   force =     0.00000000    0.00000000   -0.00000000
     The local contribution  to forces
     atom    1 type  1   force =    -0.00000000   -0.00000000   -0.00000000
     atom    2 type  1   force =    -0.00000000    0.00000000    0.00000000
     atom    3 type  1   force =     0.00000000   -0.00000000    0.00000000
     atom    4 type  1   force =     0.00000000    0.00000000   -0.00000000
     The core correction contribution to forces
     atom    1 type  1   force =    -0.00000000   -0.00000000   -0.00000000
     atom    2 type  1   force =    -0.00000000   -0.00000000    0.00000000
     atom    3 type  1   force =     0.00000000   -0.00000000    0.00000000
     atom    4 type  1   force =     0.00000000    0.00000000   -0.00000000
     The Hubbard contrib.    to forces
     atom    1 type  1   force =     0.00000000    0.00000000    0.00000000
     atom    2 type  1   force =     0.00000000    0.00000000    0.00000000
     atom    3 type  1   force =     0.00000000    0.00000000    0.00000000
     atom    4 type  1   force =     0.00000000    0.00000000    0.00000000
     The SCF correction term to forces
     atom    1 type  1   force =    -0.00000000    0.00000000    0.00000000
     atom    2 type  1   force =    -0.00000000    0.00000000    0.00000000
     atom    3 type  1   force =     0.00000000    0.00000000    0.00000000
     atom    4 type  1   force =    -0.00000000   -0.00000000   -0.00000000

     Total force =     0.000000     Total SCF correction =     0.000000


     Computing stress (Cartesian axis) and pressure

          total   stress  (Ry/bohr**3)                   (kbar)     P=      -34.24
  -0.00023273   0.00000000   0.00000000          -34.24        0.00        0.00
   0.00000000  -0.00023273   0.00000000            0.00      -34.24        0.00
   0.00000000   0.00000000  -0.00023273            0.00        0.00      -34.24

     kinetic stress (kbar)  64147.28      0.00      0.00
                                0.00  64147.28      0.00
                                0.00      0.00  64147.28

     local   stress (kbar)  11911.82     -0.00     -0.00
                               -0.00  11911.82     -0.00
                               -0.00     -0.00  11911.82

     nonloc. stress (kbar)  29743.78      0.00      0.00
                                0.00  29743.78      0.00
                                0.00      0.00  29743.78

     hartree stress (kbar)  72912.80      0.00      0.00
                                0.00  72912.80      0.00
                                0.00      0.00  72912.80

     exc-cor stress (kbar) -19255.95      0.00     -0.00
                                0.00 -19255.95      0.00
                               -0.00      0.00 -19255.95

     corecor stress (kbar)  -3709.10      0.00     -0.00
                                0.00  -3709.10     -0.00
                               -0.00     -0.00  -3709.10

     ewald   stress (kbar)-155784.86      0.00     -0.00
                                0.00-155784.86     -0.00
                               -0.00     -0.00-155784.86

     hubbard stress (kbar)      0.00      0.00      0.00
                                0.00      0.00      0.00
                                0.00      0.00      0.00

     DFT-D   stress (kbar)      0.00      0.00      0.00
                                0.00      0.00      0.00
                                0.00      0.00      0.00

     XDM     stress (kbar)      0.00      0.00      0.00
                                0.00      0.00      0.00
                                0.00      0.00      0.00

     dft-nl  stress (kbar)      0.00      0.00      0.00
                                0.00      0.00      0.00
                                0.00      0.00      0.00

     TS-vdW  stress (kbar)      0.00      0.00      0.00
                                0.00      0.00      0.00
                                0.00      0.00      0.00


                                0.00      0.00      0.00
                                0.00      0.00      0.00


                                0.00      0.00      0.00


     Writing output data file ./ni/out/aiida.save/
 
     init_run     :      2.69s CPU      3.03s WALL (       1 calls)
     electrons    :    111.92s CPU    113.31s WALL (       1 calls)
     forces       :      0.50s CPU      0.50s WALL (       1 calls)
     stress       :      3.39s CPU      3.00s WALL (       1 calls)

     Called by init_run:
     wfcinit      :      2.36s CPU      2.51s WALL (       1 calls)
                                        2.51s GPU  (       1 calls)
     wfcinit:atom :      0.10s CPU      0.11s WALL (     440 calls)
                                        0.07s GPU  (     440 calls)
     wfcinit:wfcr :      1.80s CPU      1.85s WALL (     440 calls)
                                        1.85s GPU  (     440 calls)
     potinit      :      0.02s CPU      0.02s WALL (       1 calls)
     hinit0       :      0.06s CPU      0.06s WALL (       1 calls)

     Called by electrons:
     c_bands      :    104.86s CPU    106.37s WALL (      15 calls)
     sum_band     :      6.66s CPU      6.66s WALL (      15 calls)
     v_of_rho     :      0.24s CPU      0.15s WALL (      16 calls)
     v_h          :      0.01s CPU      0.01s WALL (      16 calls)
     v_xc         :      0.25s CPU      0.16s WALL (      18 calls)
     newd         :      0.27s CPU      0.45s WALL (      16 calls)
                                        0.45s GPU  (      16 calls)
     mix_rho      :      0.07s CPU      0.05s WALL (      15 calls)

     Called by c_bands:
     init_us_2_gp :      2.26s CPU      2.41s WALL (   14520 calls)
     cegterg      :    101.21s CPU    102.16s WALL (    6600 calls)

     Called by sum_band:
     sum_band:wei :      0.10s CPU      0.11s WALL (      15 calls)
                                        0.11s GPU  (      15 calls)
     sum_band:loo :      6.44s CPU      6.47s WALL (      15 calls)
                                        6.47s GPU  (      15 calls)
     sum_band:buf :      0.69s CPU      0.72s WALL (    6600 calls)
                                        0.70s GPU  (    6600 calls)
     sum_band:ini :      1.09s CPU      2.07s WALL (    6600 calls)
                                        2.05s GPU  (    6600 calls)
     sum_band:cal :      0.05s CPU      0.86s WALL (    6600 calls)
                                        0.77s GPU  (    6600 calls)
     sum_band:bec :      0.88s CPU      0.91s WALL (    6600 calls)
                                        0.89s GPU  (    6600 calls)
     addusdens    :      0.06s CPU      0.05s WALL (      15 calls)
                                        0.05s GPU  (      15 calls)
     addusd:skk   :      0.00s CPU      0.00s WALL (      15 calls)
                                        0.00s GPU  (      15 calls)

     Called by *egterg:
     cdiaghg      :     68.46s CPU     68.64s WALL (   20895 calls)
                                       68.40s GPU  (   20895 calls)
     cegterg:over :      4.56s CPU      4.59s WALL (   14295 calls)
     cegterg:upda :      1.39s CPU      1.39s WALL (   14295 calls)
     cegterg:last :      2.32s CPU      2.32s WALL (   12588 calls)
     h_psi        :     13.13s CPU     13.72s WALL (   21335 calls)
                                       13.60s GPU  (   21335 calls)
     s_psi        :      0.59s CPU      3.35s WALL (   21335 calls)
                                        3.27s GPU  (   21335 calls)
     g_psi        :      0.02s CPU      0.15s WALL (   14295 calls)
                                        0.10s GPU  (   14295 calls)

     Called by h_psi:
     h_psi:calbec :      0.18s CPU      2.30s WALL (   21335 calls)
                                        2.24s GPU  (   21335 calls)
     vloc_psi     :      7.58s CPU      8.02s WALL (   21335 calls)
                                        7.89s GPU  (   21335 calls)
     add_vuspsi   :      0.31s CPU      3.08s WALL (   21335 calls)
                                        3.02s GPU  (   21335 calls)

     General routines
     calbec       :      0.23s CPU      0.23s WALL (   30135 calls)
     fft          :      0.23s CPU      0.13s WALL (     438 calls)
                                        0.01s GPU  (      40 calls)
     ffts         :      0.02s CPU      0.01s WALL (      62 calls)
     fftw         :      0.49s CPU      9.07s WALL (  128816 calls)
                                        7.79s GPU  (  128816 calls)
     interpolate  :      0.03s CPU      0.02s WALL (      32 calls)
 
     Parallel routines
 
     PWSCF        :    118.94s CPU    120.27s WALL

 
   This run was terminated on:   8: 8: 9  13Mar2025            

=------------------------------------------------------------------------------=
   JOB DONE.
=------------------------------------------------------------------------------=
Warning: ieee_invalid is signaling
Warning: ieee_divide_by_zero is signaling
Warning: ieee_underflow is signaling
Warning: ieee_inexact is signaling
FORTRAN STOP
