
     Program PWSCF v.6.8 starts on 28Feb2025 at  5: 0:33 

     This program is part of the open-source Quantum ESPRESSO suite
     for quantum simulation of materials; please cite
         "P. Giannozzi et al., J. Phys.:Condens. Matter 21 395502 (2009);
         "P. Giannozzi et al., J. Phys.:Condens. Matter 29 465901 (2017);
         "P. Giannozzi et al., J. Chem. Phys. 152 154105 (2020);
          URL http://www.quantum-espresso.org", 
     in publications or presentations arising from this work. More details at
     http://www.quantum-espresso.org/quote

     Parallel version (MPI & OpenMP), running on       2 processor cores
     Number of MPI processes:                 1
     Threads/MPI process:                     2

     MPI processes distributed on     1 nodes
     7824 MiB available memory on the printing compute node when the environment starts
 
     Reading input from fept/pwscf.in

     Current dimensions of program PWSCF are:
     Max number of different atomic species (ntypx) = 10
     Max number of k-points (npk) =  40000
     Max angular momentum in pseudopotentials (lmaxx) =  4
     file Fe.pbesol-spn-kjpaw_psl.0.2.1.UPF: wavefunction(s)  3D renormalized
     Message from routine setup:
     using ibrav=0 with symmetry is DISCOURAGED, use correct ibrav instead

     Subspace diagonalization in iterative solution of the eigenvalue problem:
     a serial algorithm will be used

 
     G-vector sticks info
     --------------------
     sticks:   dense  smooth     PW     G-vecs:    dense   smooth      PW
     Sum        4545    1513    437               222881    42923    6659
 
     Using Slab Decomposition
 


     bravais-lattice index     =            0
     lattice parameter (alat)  =       7.2754  a.u.
     unit-cell volume          =     372.1011 (a.u.)^3
     number of atoms/cell      =            2
     number of atomic types    =            2
     number of electrons       =        32.00
     number of Kohn-Sham states=           20
     kinetic-energy cutoff     =      90.0000  Ry
     charge density cutoff     =    1080.0000  Ry
     scf convergence threshold =      4.0E-10
     mixing beta               =       0.4000
     number of iterations used =            8  plain     mixing
     Exchange-correlation= SLA  PW   PSX  PSC
                           (   1   4  10   8   0   0   0)

     GPU acceleration is ACTIVE.
     GPU-aware MPI enabled


     GPU used by master process:

        Device Number: 0
        Device name: NVIDIA GeForce RTX 4090
        Compute capability : 89
        Ratio of single to double precision performance  : 64
        Memory Clock Rate (KHz): 10501000
        Memory Bus Width (bits): 384
        Peak Memory Bandwidth (GB/s): ******

     celldm(1)=   7.275446  celldm(2)=   0.000000  celldm(3)=   0.000000
     celldm(4)=   0.000000  celldm(5)=   0.000000  celldm(6)=   0.000000

     crystal axes: (cart. coord. in units of alat)
               a(1) = (   1.000000   0.000000   0.000000 )  
               a(2) = (   0.000000   1.000000   0.000000 )  
               a(3) = (   0.000000   0.000000   0.966234 )  

     reciprocal axes: (cart. coord. in units 2 pi/alat)
               b(1) = (  1.000000  0.000000  0.000000 )  
               b(2) = (  0.000000  1.000000  0.000000 )  
               b(3) = (  0.000000  0.000000  1.034946 )  


     PseudoPot. # 1 for Fe read from file:
     ./fept/pseudo/Fe.pbesol-spn-kjpaw_psl.0.2.1.UPF
     MD5 check sum: 4d7ec5aa2156491519a4322664fbbf52
     Pseudo is Projector augmented-wave + core cor, Zval = 16.0
     Generated using "atomic" code by A. Dal Corso  v.6.0 svn rev. 13079
     Shape of augmentation charge: PSQ
     Using radial grid of 1191 points,  6 beta functions with: 
                l(1) =   0
                l(2) =   0
                l(3) =   1
                l(4) =   1
                l(5) =   2
                l(6) =   2
     Q(r) pseudized with 0 coefficients 


     PseudoPot. # 2 for Pt read from file:
     ./fept/pseudo/pt_pbesol_v1.4.uspp.F.UPF
     MD5 check sum: d14d547907f752a992688280a7473f8c
     Pseudo is Ultrasoft + core correction, Zval = 16.0
     Generated by new atomic code, or converted to UPF format
     Using radial grid of  985 points,  6 beta functions with: 
                l(1) =   0
                l(2) =   0
                l(3) =   1
                l(4) =   1
                l(5) =   2
                l(6) =   2
     Q(r) pseudized with  8 coefficients,  rinner =    1.300   1.300   1.300
                                                       1.300   1.300

     atomic species   valence    mass     pseudopotential
        Fe            16.00    55.84500     Fe( 1.00)
        Pt            16.00   195.08400     Pt( 1.00)

     Starting magnetic structure 
     atomic species   magnetization
        Fe           0.313
        Pt           0.313

     16 Sym. Ops., with inversion, found


                                    s                        frac. trans.

      isym =  1     identity                                     

 cryst.   s( 1) = (     1          0          0      )
                  (     0          1          0      )
                  (     0          0          1      )

 cart.    s( 1) = (  1.0000000  0.0000000  0.0000000 )
                  (  0.0000000  1.0000000  0.0000000 )
                  (  0.0000000  0.0000000  1.0000000 )


      isym =  2     180 deg rotation - cart. axis [0,0,1]        

 cryst.   s( 2) = (    -1          0          0      )
                  (     0         -1          0      )
                  (     0          0          1      )

 cart.    s( 2) = ( -1.0000000  0.0000000  0.0000000 )
                  (  0.0000000 -1.0000000  0.0000000 )
                  (  0.0000000  0.0000000  1.0000000 )


      isym =  3     180 deg rotation - cart. axis [0,1,0]        

 cryst.   s( 3) = (    -1          0          0      )
                  (     0          1          0      )
                  (     0          0         -1      )

 cart.    s( 3) = ( -1.0000000  0.0000000  0.0000000 )
                  (  0.0000000  1.0000000  0.0000000 )
                  (  0.0000000  0.0000000 -1.0000000 )


      isym =  4     180 deg rotation - cart. axis [1,0,0]        

 cryst.   s( 4) = (     1          0          0      )
                  (     0         -1          0      )
                  (     0          0         -1      )

 cart.    s( 4) = (  1.0000000  0.0000000  0.0000000 )
                  (  0.0000000 -1.0000000  0.0000000 )
                  (  0.0000000  0.0000000 -1.0000000 )


      isym =  5     180 deg rotation - cart. axis [1,1,0]        

 cryst.   s( 5) = (     0          1          0      )
                  (     1          0          0      )
                  (     0          0         -1      )

 cart.    s( 5) = (  0.0000000  1.0000000  0.0000000 )
                  (  1.0000000  0.0000000  0.0000000 )
                  (  0.0000000  0.0000000 -1.0000000 )


      isym =  6     180 deg rotation - cart. axis [1,-1,0]       

 cryst.   s( 6) = (     0         -1          0      )
                  (    -1          0          0      )
                  (     0          0         -1      )

 cart.    s( 6) = (  0.0000000 -1.0000000  0.0000000 )
                  ( -1.0000000  0.0000000  0.0000000 )
                  (  0.0000000  0.0000000 -1.0000000 )


      isym =  7      90 deg rotation - cart. axis [0,0,-1]       

 cryst.   s( 7) = (     0         -1          0      )
                  (     1          0          0      )
                  (     0          0          1      )

 cart.    s( 7) = (  0.0000000  1.0000000  0.0000000 )
                  ( -1.0000000  0.0000000  0.0000000 )
                  (  0.0000000  0.0000000  1.0000000 )


      isym =  8      90 deg rotation - cart. axis [0,0,1]        

 cryst.   s( 8) = (     0          1          0      )
                  (    -1          0          0      )
                  (     0          0          1      )

 cart.    s( 8) = (  0.0000000 -1.0000000  0.0000000 )
                  (  1.0000000  0.0000000  0.0000000 )
                  (  0.0000000  0.0000000  1.0000000 )


      isym =  9     inversion                                    

 cryst.   s( 9) = (    -1          0          0      )
                  (     0         -1          0      )
                  (     0          0         -1      )

 cart.    s( 9) = ( -1.0000000  0.0000000  0.0000000 )
                  (  0.0000000 -1.0000000  0.0000000 )
                  (  0.0000000  0.0000000 -1.0000000 )


      isym = 10     inv. 180 deg rotation - cart. axis [0,0,1]   

 cryst.   s(10) = (     1          0          0      )
                  (     0          1          0      )
                  (     0          0         -1      )

 cart.    s(10) = (  1.0000000  0.0000000  0.0000000 )
                  (  0.0000000  1.0000000  0.0000000 )
                  (  0.0000000  0.0000000 -1.0000000 )


      isym = 11     inv. 180 deg rotation - cart. axis [0,1,0]   

 cryst.   s(11) = (     1          0          0      )
                  (     0         -1          0      )
                  (     0          0          1      )

 cart.    s(11) = (  1.0000000  0.0000000  0.0000000 )
                  (  0.0000000 -1.0000000  0.0000000 )
                  (  0.0000000  0.0000000  1.0000000 )


      isym = 12     inv. 180 deg rotation - cart. axis [1,0,0]   

 cryst.   s(12) = (    -1          0          0      )
                  (     0          1          0      )
                  (     0          0          1      )

 cart.    s(12) = ( -1.0000000  0.0000000  0.0000000 )
                  (  0.0000000  1.0000000  0.0000000 )
                  (  0.0000000  0.0000000  1.0000000 )


      isym = 13     inv. 180 deg rotation - cart. axis [1,1,0]   

 cryst.   s(13) = (     0         -1          0      )
                  (    -1          0          0      )
                  (     0          0          1      )

 cart.    s(13) = (  0.0000000 -1.0000000  0.0000000 )
                  ( -1.0000000  0.0000000  0.0000000 )
                  (  0.0000000  0.0000000  1.0000000 )


      isym = 14     inv. 180 deg rotation - cart. axis [1,-1,0]  

 cryst.   s(14) = (     0          1          0      )
                  (     1          0          0      )
                  (     0          0          1      )

 cart.    s(14) = (  0.0000000  1.0000000  0.0000000 )
                  (  1.0000000  0.0000000  0.0000000 )
                  (  0.0000000  0.0000000  1.0000000 )


      isym = 15     inv.  90 deg rotation - cart. axis [0,0,-1]  

 cryst.   s(15) = (     0          1          0      )
                  (    -1          0          0      )
                  (     0          0         -1      )

 cart.    s(15) = (  0.0000000 -1.0000000  0.0000000 )
                  (  1.0000000  0.0000000  0.0000000 )
                  (  0.0000000  0.0000000 -1.0000000 )


      isym = 16     inv.  90 deg rotation - cart. axis [0,0,1]   

 cryst.   s(16) = (     0         -1          0      )
                  (     1          0          0      )
                  (     0          0         -1      )

 cart.    s(16) = (  0.0000000  1.0000000  0.0000000 )
                  ( -1.0000000  0.0000000  0.0000000 )
                  (  0.0000000  0.0000000 -1.0000000 )


   Cartesian axes

     site n.     atom                  positions (alat units)
         1           Fe  tau(   1) = (   0.0000000   0.0000000   0.0000000  )
         2           Pt  tau(   2) = (   0.5000000   0.5000000   0.4831169  )

   Crystallographic axes

     site n.     atom                  positions (cryst. coord.)
         1           Fe  tau(   1) = (  0.0000000  0.0000000  0.0000000  )
         2           Pt  tau(   2) = (  0.5000000  0.5000000  0.5000000  )

     number of k points=   405  Marzari-Vanderbilt smearing, width (Ry)=  0.0125
                       cart. coord. in units 2pi/alat
        k(    1) = (   0.0000000   0.0000000   0.0000000), wk =   0.0002035
        k(    2) = (   0.0000000   0.0000000   0.0608792), wk =   0.0004071
        k(    3) = (   0.0000000   0.0000000   0.1217584), wk =   0.0004071
        k(    4) = (   0.0000000   0.0000000   0.1826376), wk =   0.0004071
        k(    5) = (   0.0000000   0.0000000   0.2435168), wk =   0.0004071
        k(    6) = (   0.0000000   0.0000000   0.3043960), wk =   0.0004071
        k(    7) = (   0.0000000   0.0000000   0.3652751), wk =   0.0004071
        k(    8) = (   0.0000000   0.0000000   0.4261543), wk =   0.0004071
        k(    9) = (   0.0000000   0.0000000   0.4870335), wk =   0.0004071
        k(   10) = (   0.0000000   0.0588235   0.0000000), wk =   0.0008142
        k(   11) = (   0.0000000   0.0588235   0.0608792), wk =   0.0016283
        k(   12) = (   0.0000000   0.0588235   0.1217584), wk =   0.0016283
        k(   13) = (   0.0000000   0.0588235   0.1826376), wk =   0.0016283
        k(   14) = (   0.0000000   0.0588235   0.2435168), wk =   0.0016283
        k(   15) = (   0.0000000   0.0588235   0.3043960), wk =   0.0016283
        k(   16) = (   0.0000000   0.0588235   0.3652751), wk =   0.0016283
        k(   17) = (   0.0000000   0.0588235   0.4261543), wk =   0.0016283
        k(   18) = (   0.0000000   0.0588235   0.4870335), wk =   0.0016283
        k(   19) = (   0.0000000   0.1176471   0.0000000), wk =   0.0008142
        k(   20) = (   0.0000000   0.1176471   0.0608792), wk =   0.0016283
        k(   21) = (   0.0000000   0.1176471   0.1217584), wk =   0.0016283
        k(   22) = (   0.0000000   0.1176471   0.1826376), wk =   0.0016283
        k(   23) = (   0.0000000   0.1176471   0.2435168), wk =   0.0016283
        k(   24) = (   0.0000000   0.1176471   0.3043960), wk =   0.0016283
        k(   25) = (   0.0000000   0.1176471   0.3652751), wk =   0.0016283
        k(   26) = (   0.0000000   0.1176471   0.4261543), wk =   0.0016283
        k(   27) = (   0.0000000   0.1176471   0.4870335), wk =   0.0016283
        k(   28) = (   0.0000000   0.1764706   0.0000000), wk =   0.0008142
        k(   29) = (   0.0000000   0.1764706   0.0608792), wk =   0.0016283
        k(   30) = (   0.0000000   0.1764706   0.1217584), wk =   0.0016283
        k(   31) = (   0.0000000   0.1764706   0.1826376), wk =   0.0016283
        k(   32) = (   0.0000000   0.1764706   0.2435168), wk =   0.0016283
        k(   33) = (   0.0000000   0.1764706   0.3043960), wk =   0.0016283
        k(   34) = (   0.0000000   0.1764706   0.3652751), wk =   0.0016283
        k(   35) = (   0.0000000   0.1764706   0.4261543), wk =   0.0016283
        k(   36) = (   0.0000000   0.1764706   0.4870335), wk =   0.0016283
        k(   37) = (   0.0000000   0.2352941   0.0000000), wk =   0.0008142
        k(   38) = (   0.0000000   0.2352941   0.0608792), wk =   0.0016283
        k(   39) = (   0.0000000   0.2352941   0.1217584), wk =   0.0016283
        k(   40) = (   0.0000000   0.2352941   0.1826376), wk =   0.0016283
        k(   41) = (   0.0000000   0.2352941   0.2435168), wk =   0.0016283
        k(   42) = (   0.0000000   0.2352941   0.3043960), wk =   0.0016283
        k(   43) = (   0.0000000   0.2352941   0.3652751), wk =   0.0016283
        k(   44) = (   0.0000000   0.2352941   0.4261543), wk =   0.0016283
        k(   45) = (   0.0000000   0.2352941   0.4870335), wk =   0.0016283
        k(   46) = (   0.0000000   0.2941176   0.0000000), wk =   0.0008142
        k(   47) = (   0.0000000   0.2941176   0.0608792), wk =   0.0016283
        k(   48) = (   0.0000000   0.2941176   0.1217584), wk =   0.0016283
        k(   49) = (   0.0000000   0.2941176   0.1826376), wk =   0.0016283
        k(   50) = (   0.0000000   0.2941176   0.2435168), wk =   0.0016283
        k(   51) = (   0.0000000   0.2941176   0.3043960), wk =   0.0016283
        k(   52) = (   0.0000000   0.2941176   0.3652751), wk =   0.0016283
        k(   53) = (   0.0000000   0.2941176   0.4261543), wk =   0.0016283
        k(   54) = (   0.0000000   0.2941176   0.4870335), wk =   0.0016283
        k(   55) = (   0.0000000   0.3529412   0.0000000), wk =   0.0008142
        k(   56) = (   0.0000000   0.3529412   0.0608792), wk =   0.0016283
        k(   57) = (   0.0000000   0.3529412   0.1217584), wk =   0.0016283
        k(   58) = (   0.0000000   0.3529412   0.1826376), wk =   0.0016283
        k(   59) = (   0.0000000   0.3529412   0.2435168), wk =   0.0016283
        k(   60) = (   0.0000000   0.3529412   0.3043960), wk =   0.0016283
        k(   61) = (   0.0000000   0.3529412   0.3652751), wk =   0.0016283
        k(   62) = (   0.0000000   0.3529412   0.4261543), wk =   0.0016283
        k(   63) = (   0.0000000   0.3529412   0.4870335), wk =   0.0016283
        k(   64) = (   0.0000000   0.4117647   0.0000000), wk =   0.0008142
        k(   65) = (   0.0000000   0.4117647   0.0608792), wk =   0.0016283
        k(   66) = (   0.0000000   0.4117647   0.1217584), wk =   0.0016283
        k(   67) = (   0.0000000   0.4117647   0.1826376), wk =   0.0016283
        k(   68) = (   0.0000000   0.4117647   0.2435168), wk =   0.0016283
        k(   69) = (   0.0000000   0.4117647   0.3043960), wk =   0.0016283
        k(   70) = (   0.0000000   0.4117647   0.3652751), wk =   0.0016283
        k(   71) = (   0.0000000   0.4117647   0.4261543), wk =   0.0016283
        k(   72) = (   0.0000000   0.4117647   0.4870335), wk =   0.0016283
        k(   73) = (   0.0000000   0.4705882   0.0000000), wk =   0.0008142
        k(   74) = (   0.0000000   0.4705882   0.0608792), wk =   0.0016283
        k(   75) = (   0.0000000   0.4705882   0.1217584), wk =   0.0016283
        k(   76) = (   0.0000000   0.4705882   0.1826376), wk =   0.0016283
        k(   77) = (   0.0000000   0.4705882   0.2435168), wk =   0.0016283
        k(   78) = (   0.0000000   0.4705882   0.3043960), wk =   0.0016283
        k(   79) = (   0.0000000   0.4705882   0.3652751), wk =   0.0016283
        k(   80) = (   0.0000000   0.4705882   0.4261543), wk =   0.0016283
        k(   81) = (   0.0000000   0.4705882   0.4870335), wk =   0.0016283
        k(   82) = (   0.0588235   0.0588235   0.0000000), wk =   0.0008142
        k(   83) = (   0.0588235   0.0588235   0.0608792), wk =   0.0016283
        k(   84) = (   0.0588235   0.0588235   0.1217584), wk =   0.0016283
        k(   85) = (   0.0588235   0.0588235   0.1826376), wk =   0.0016283
        k(   86) = (   0.0588235   0.0588235   0.2435168), wk =   0.0016283
        k(   87) = (   0.0588235   0.0588235   0.3043960), wk =   0.0016283
        k(   88) = (   0.0588235   0.0588235   0.3652751), wk =   0.0016283
        k(   89) = (   0.0588235   0.0588235   0.4261543), wk =   0.0016283
        k(   90) = (   0.0588235   0.0588235   0.4870335), wk =   0.0016283
        k(   91) = (   0.0588235   0.1176471   0.0000000), wk =   0.0016283
        k(   92) = (   0.0588235   0.1176471   0.0608792), wk =   0.0032567
        k(   93) = (   0.0588235   0.1176471   0.1217584), wk =   0.0032567
        k(   94) = (   0.0588235   0.1176471   0.1826376), wk =   0.0032567
        k(   95) = (   0.0588235   0.1176471   0.2435168), wk =   0.0032567
        k(   96) = (   0.0588235   0.1176471   0.3043960), wk =   0.0032567
        k(   97) = (   0.0588235   0.1176471   0.3652751), wk =   0.0032567
        k(   98) = (   0.0588235   0.1176471   0.4261543), wk =   0.0032567
        k(   99) = (   0.0588235   0.1176471   0.4870335), wk =   0.0032567
        k(  100) = (   0.0588235   0.1764706   0.0000000), wk =   0.0016283
        k(  101) = (   0.0588235   0.1764706   0.0608792), wk =   0.0032567
        k(  102) = (   0.0588235   0.1764706   0.1217584), wk =   0.0032567
        k(  103) = (   0.0588235   0.1764706   0.1826376), wk =   0.0032567
        k(  104) = (   0.0588235   0.1764706   0.2435168), wk =   0.0032567
        k(  105) = (   0.0588235   0.1764706   0.3043960), wk =   0.0032567
        k(  106) = (   0.0588235   0.1764706   0.3652751), wk =   0.0032567
        k(  107) = (   0.0588235   0.1764706   0.4261543), wk =   0.0032567
        k(  108) = (   0.0588235   0.1764706   0.4870335), wk =   0.0032567
        k(  109) = (   0.0588235   0.2352941   0.0000000), wk =   0.0016283
        k(  110) = (   0.0588235   0.2352941   0.0608792), wk =   0.0032567
        k(  111) = (   0.0588235   0.2352941   0.1217584), wk =   0.0032567
        k(  112) = (   0.0588235   0.2352941   0.1826376), wk =   0.0032567
        k(  113) = (   0.0588235   0.2352941   0.2435168), wk =   0.0032567
        k(  114) = (   0.0588235   0.2352941   0.3043960), wk =   0.0032567
        k(  115) = (   0.0588235   0.2352941   0.3652751), wk =   0.0032567
        k(  116) = (   0.0588235   0.2352941   0.4261543), wk =   0.0032567
        k(  117) = (   0.0588235   0.2352941   0.4870335), wk =   0.0032567
        k(  118) = (   0.0588235   0.2941176   0.0000000), wk =   0.0016283
        k(  119) = (   0.0588235   0.2941176   0.0608792), wk =   0.0032567
        k(  120) = (   0.0588235   0.2941176   0.1217584), wk =   0.0032567
        k(  121) = (   0.0588235   0.2941176   0.1826376), wk =   0.0032567
        k(  122) = (   0.0588235   0.2941176   0.2435168), wk =   0.0032567
        k(  123) = (   0.0588235   0.2941176   0.3043960), wk =   0.0032567
        k(  124) = (   0.0588235   0.2941176   0.3652751), wk =   0.0032567
        k(  125) = (   0.0588235   0.2941176   0.4261543), wk =   0.0032567
        k(  126) = (   0.0588235   0.2941176   0.4870335), wk =   0.0032567
        k(  127) = (   0.0588235   0.3529412   0.0000000), wk =   0.0016283
        k(  128) = (   0.0588235   0.3529412   0.0608792), wk =   0.0032567
        k(  129) = (   0.0588235   0.3529412   0.1217584), wk =   0.0032567
        k(  130) = (   0.0588235   0.3529412   0.1826376), wk =   0.0032567
        k(  131) = (   0.0588235   0.3529412   0.2435168), wk =   0.0032567
        k(  132) = (   0.0588235   0.3529412   0.3043960), wk =   0.0032567
        k(  133) = (   0.0588235   0.3529412   0.3652751), wk =   0.0032567
        k(  134) = (   0.0588235   0.3529412   0.4261543), wk =   0.0032567
        k(  135) = (   0.0588235   0.3529412   0.4870335), wk =   0.0032567
        k(  136) = (   0.0588235   0.4117647   0.0000000), wk =   0.0016283
        k(  137) = (   0.0588235   0.4117647   0.0608792), wk =   0.0032567
        k(  138) = (   0.0588235   0.4117647   0.1217584), wk =   0.0032567
        k(  139) = (   0.0588235   0.4117647   0.1826376), wk =   0.0032567
        k(  140) = (   0.0588235   0.4117647   0.2435168), wk =   0.0032567
        k(  141) = (   0.0588235   0.4117647   0.3043960), wk =   0.0032567
        k(  142) = (   0.0588235   0.4117647   0.3652751), wk =   0.0032567
        k(  143) = (   0.0588235   0.4117647   0.4261543), wk =   0.0032567
        k(  144) = (   0.0588235   0.4117647   0.4870335), wk =   0.0032567
        k(  145) = (   0.0588235   0.4705882   0.0000000), wk =   0.0016283
        k(  146) = (   0.0588235   0.4705882   0.0608792), wk =   0.0032567
        k(  147) = (   0.0588235   0.4705882   0.1217584), wk =   0.0032567
        k(  148) = (   0.0588235   0.4705882   0.1826376), wk =   0.0032567
        k(  149) = (   0.0588235   0.4705882   0.2435168), wk =   0.0032567
        k(  150) = (   0.0588235   0.4705882   0.3043960), wk =   0.0032567
        k(  151) = (   0.0588235   0.4705882   0.3652751), wk =   0.0032567
        k(  152) = (   0.0588235   0.4705882   0.4261543), wk =   0.0032567
        k(  153) = (   0.0588235   0.4705882   0.4870335), wk =   0.0032567
        k(  154) = (   0.1176471   0.1176471   0.0000000), wk =   0.0008142
        k(  155) = (   0.1176471   0.1176471   0.0608792), wk =   0.0016283
        k(  156) = (   0.1176471   0.1176471   0.1217584), wk =   0.0016283
        k(  157) = (   0.1176471   0.1176471   0.1826376), wk =   0.0016283
        k(  158) = (   0.1176471   0.1176471   0.2435168), wk =   0.0016283
        k(  159) = (   0.1176471   0.1176471   0.3043960), wk =   0.0016283
        k(  160) = (   0.1176471   0.1176471   0.3652751), wk =   0.0016283
        k(  161) = (   0.1176471   0.1176471   0.4261543), wk =   0.0016283
        k(  162) = (   0.1176471   0.1176471   0.4870335), wk =   0.0016283
        k(  163) = (   0.1176471   0.1764706   0.0000000), wk =   0.0016283
        k(  164) = (   0.1176471   0.1764706   0.0608792), wk =   0.0032567
        k(  165) = (   0.1176471   0.1764706   0.1217584), wk =   0.0032567
        k(  166) = (   0.1176471   0.1764706   0.1826376), wk =   0.0032567
        k(  167) = (   0.1176471   0.1764706   0.2435168), wk =   0.0032567
        k(  168) = (   0.1176471   0.1764706   0.3043960), wk =   0.0032567
        k(  169) = (   0.1176471   0.1764706   0.3652751), wk =   0.0032567
        k(  170) = (   0.1176471   0.1764706   0.4261543), wk =   0.0032567
        k(  171) = (   0.1176471   0.1764706   0.4870335), wk =   0.0032567
        k(  172) = (   0.1176471   0.2352941   0.0000000), wk =   0.0016283
        k(  173) = (   0.1176471   0.2352941   0.0608792), wk =   0.0032567
        k(  174) = (   0.1176471   0.2352941   0.1217584), wk =   0.0032567
        k(  175) = (   0.1176471   0.2352941   0.1826376), wk =   0.0032567
        k(  176) = (   0.1176471   0.2352941   0.2435168), wk =   0.0032567
        k(  177) = (   0.1176471   0.2352941   0.3043960), wk =   0.0032567
        k(  178) = (   0.1176471   0.2352941   0.3652751), wk =   0.0032567
        k(  179) = (   0.1176471   0.2352941   0.4261543), wk =   0.0032567
        k(  180) = (   0.1176471   0.2352941   0.4870335), wk =   0.0032567
        k(  181) = (   0.1176471   0.2941176   0.0000000), wk =   0.0016283
        k(  182) = (   0.1176471   0.2941176   0.0608792), wk =   0.0032567
        k(  183) = (   0.1176471   0.2941176   0.1217584), wk =   0.0032567
        k(  184) = (   0.1176471   0.2941176   0.1826376), wk =   0.0032567
        k(  185) = (   0.1176471   0.2941176   0.2435168), wk =   0.0032567
        k(  186) = (   0.1176471   0.2941176   0.3043960), wk =   0.0032567
        k(  187) = (   0.1176471   0.2941176   0.3652751), wk =   0.0032567
        k(  188) = (   0.1176471   0.2941176   0.4261543), wk =   0.0032567
        k(  189) = (   0.1176471   0.2941176   0.4870335), wk =   0.0032567
        k(  190) = (   0.1176471   0.3529412   0.0000000), wk =   0.0016283
        k(  191) = (   0.1176471   0.3529412   0.0608792), wk =   0.0032567
        k(  192) = (   0.1176471   0.3529412   0.1217584), wk =   0.0032567
        k(  193) = (   0.1176471   0.3529412   0.1826376), wk =   0.0032567
        k(  194) = (   0.1176471   0.3529412   0.2435168), wk =   0.0032567
        k(  195) = (   0.1176471   0.3529412   0.3043960), wk =   0.0032567
        k(  196) = (   0.1176471   0.3529412   0.3652751), wk =   0.0032567
        k(  197) = (   0.1176471   0.3529412   0.4261543), wk =   0.0032567
        k(  198) = (   0.1176471   0.3529412   0.4870335), wk =   0.0032567
        k(  199) = (   0.1176471   0.4117647   0.0000000), wk =   0.0016283
        k(  200) = (   0.1176471   0.4117647   0.0608792), wk =   0.0032567
        k(  201) = (   0.1176471   0.4117647   0.1217584), wk =   0.0032567
        k(  202) = (   0.1176471   0.4117647   0.1826376), wk =   0.0032567
        k(  203) = (   0.1176471   0.4117647   0.2435168), wk =   0.0032567
        k(  204) = (   0.1176471   0.4117647   0.3043960), wk =   0.0032567
        k(  205) = (   0.1176471   0.4117647   0.3652751), wk =   0.0032567
        k(  206) = (   0.1176471   0.4117647   0.4261543), wk =   0.0032567
        k(  207) = (   0.1176471   0.4117647   0.4870335), wk =   0.0032567
        k(  208) = (   0.1176471   0.4705882   0.0000000), wk =   0.0016283
        k(  209) = (   0.1176471   0.4705882   0.0608792), wk =   0.0032567
        k(  210) = (   0.1176471   0.4705882   0.1217584), wk =   0.0032567
        k(  211) = (   0.1176471   0.4705882   0.1826376), wk =   0.0032567
        k(  212) = (   0.1176471   0.4705882   0.2435168), wk =   0.0032567
        k(  213) = (   0.1176471   0.4705882   0.3043960), wk =   0.0032567
        k(  214) = (   0.1176471   0.4705882   0.3652751), wk =   0.0032567
        k(  215) = (   0.1176471   0.4705882   0.4261543), wk =   0.0032567
        k(  216) = (   0.1176471   0.4705882   0.4870335), wk =   0.0032567
        k(  217) = (   0.1764706   0.1764706   0.0000000), wk =   0.0008142
        k(  218) = (   0.1764706   0.1764706   0.0608792), wk =   0.0016283
        k(  219) = (   0.1764706   0.1764706   0.1217584), wk =   0.0016283
        k(  220) = (   0.1764706   0.1764706   0.1826376), wk =   0.0016283
        k(  221) = (   0.1764706   0.1764706   0.2435168), wk =   0.0016283
        k(  222) = (   0.1764706   0.1764706   0.3043960), wk =   0.0016283
        k(  223) = (   0.1764706   0.1764706   0.3652751), wk =   0.0016283
        k(  224) = (   0.1764706   0.1764706   0.4261543), wk =   0.0016283
        k(  225) = (   0.1764706   0.1764706   0.4870335), wk =   0.0016283
        k(  226) = (   0.1764706   0.2352941   0.0000000), wk =   0.0016283
        k(  227) = (   0.1764706   0.2352941   0.0608792), wk =   0.0032567
        k(  228) = (   0.1764706   0.2352941   0.1217584), wk =   0.0032567
        k(  229) = (   0.1764706   0.2352941   0.1826376), wk =   0.0032567
        k(  230) = (   0.1764706   0.2352941   0.2435168), wk =   0.0032567
        k(  231) = (   0.1764706   0.2352941   0.3043960), wk =   0.0032567
        k(  232) = (   0.1764706   0.2352941   0.3652751), wk =   0.0032567
        k(  233) = (   0.1764706   0.2352941   0.4261543), wk =   0.0032567
        k(  234) = (   0.1764706   0.2352941   0.4870335), wk =   0.0032567
        k(  235) = (   0.1764706   0.2941176   0.0000000), wk =   0.0016283
        k(  236) = (   0.1764706   0.2941176   0.0608792), wk =   0.0032567
        k(  237) = (   0.1764706   0.2941176   0.1217584), wk =   0.0032567
        k(  238) = (   0.1764706   0.2941176   0.1826376), wk =   0.0032567
        k(  239) = (   0.1764706   0.2941176   0.2435168), wk =   0.0032567
        k(  240) = (   0.1764706   0.2941176   0.3043960), wk =   0.0032567
        k(  241) = (   0.1764706   0.2941176   0.3652751), wk =   0.0032567
        k(  242) = (   0.1764706   0.2941176   0.4261543), wk =   0.0032567
        k(  243) = (   0.1764706   0.2941176   0.4870335), wk =   0.0032567
        k(  244) = (   0.1764706   0.3529412   0.0000000), wk =   0.0016283
        k(  245) = (   0.1764706   0.3529412   0.0608792), wk =   0.0032567
        k(  246) = (   0.1764706   0.3529412   0.1217584), wk =   0.0032567
        k(  247) = (   0.1764706   0.3529412   0.1826376), wk =   0.0032567
        k(  248) = (   0.1764706   0.3529412   0.2435168), wk =   0.0032567
        k(  249) = (   0.1764706   0.3529412   0.3043960), wk =   0.0032567
        k(  250) = (   0.1764706   0.3529412   0.3652751), wk =   0.0032567
        k(  251) = (   0.1764706   0.3529412   0.4261543), wk =   0.0032567
        k(  252) = (   0.1764706   0.3529412   0.4870335), wk =   0.0032567
        k(  253) = (   0.1764706   0.4117647   0.0000000), wk =   0.0016283
        k(  254) = (   0.1764706   0.4117647   0.0608792), wk =   0.0032567
        k(  255) = (   0.1764706   0.4117647   0.1217584), wk =   0.0032567
        k(  256) = (   0.1764706   0.4117647   0.1826376), wk =   0.0032567
        k(  257) = (   0.1764706   0.4117647   0.2435168), wk =   0.0032567
        k(  258) = (   0.1764706   0.4117647   0.3043960), wk =   0.0032567
        k(  259) = (   0.1764706   0.4117647   0.3652751), wk =   0.0032567
        k(  260) = (   0.1764706   0.4117647   0.4261543), wk =   0.0032567
        k(  261) = (   0.1764706   0.4117647   0.4870335), wk =   0.0032567
        k(  262) = (   0.1764706   0.4705882   0.0000000), wk =   0.0016283
        k(  263) = (   0.1764706   0.4705882   0.0608792), wk =   0.0032567
        k(  264) = (   0.1764706   0.4705882   0.1217584), wk =   0.0032567
        k(  265) = (   0.1764706   0.4705882   0.1826376), wk =   0.0032567
        k(  266) = (   0.1764706   0.4705882   0.2435168), wk =   0.0032567
        k(  267) = (   0.1764706   0.4705882   0.3043960), wk =   0.0032567
        k(  268) = (   0.1764706   0.4705882   0.3652751), wk =   0.0032567
        k(  269) = (   0.1764706   0.4705882   0.4261543), wk =   0.0032567
        k(  270) = (   0.1764706   0.4705882   0.4870335), wk =   0.0032567
        k(  271) = (   0.2352941   0.2352941   0.0000000), wk =   0.0008142
        k(  272) = (   0.2352941   0.2352941   0.0608792), wk =   0.0016283
        k(  273) = (   0.2352941   0.2352941   0.1217584), wk =   0.0016283
        k(  274) = (   0.2352941   0.2352941   0.1826376), wk =   0.0016283
        k(  275) = (   0.2352941   0.2352941   0.2435168), wk =   0.0016283
        k(  276) = (   0.2352941   0.2352941   0.3043960), wk =   0.0016283
        k(  277) = (   0.2352941   0.2352941   0.3652751), wk =   0.0016283
        k(  278) = (   0.2352941   0.2352941   0.4261543), wk =   0.0016283
        k(  279) = (   0.2352941   0.2352941   0.4870335), wk =   0.0016283
        k(  280) = (   0.2352941   0.2941176   0.0000000), wk =   0.0016283
        k(  281) = (   0.2352941   0.2941176   0.0608792), wk =   0.0032567
        k(  282) = (   0.2352941   0.2941176   0.1217584), wk =   0.0032567
        k(  283) = (   0.2352941   0.2941176   0.1826376), wk =   0.0032567
        k(  284) = (   0.2352941   0.2941176   0.2435168), wk =   0.0032567
        k(  285) = (   0.2352941   0.2941176   0.3043960), wk =   0.0032567
        k(  286) = (   0.2352941   0.2941176   0.3652751), wk =   0.0032567
        k(  287) = (   0.2352941   0.2941176   0.4261543), wk =   0.0032567
        k(  288) = (   0.2352941   0.2941176   0.4870335), wk =   0.0032567
        k(  289) = (   0.2352941   0.3529412   0.0000000), wk =   0.0016283
        k(  290) = (   0.2352941   0.3529412   0.0608792), wk =   0.0032567
        k(  291) = (   0.2352941   0.3529412   0.1217584), wk =   0.0032567
        k(  292) = (   0.2352941   0.3529412   0.1826376), wk =   0.0032567
        k(  293) = (   0.2352941   0.3529412   0.2435168), wk =   0.0032567
        k(  294) = (   0.2352941   0.3529412   0.3043960), wk =   0.0032567
        k(  295) = (   0.2352941   0.3529412   0.3652751), wk =   0.0032567
        k(  296) = (   0.2352941   0.3529412   0.4261543), wk =   0.0032567
        k(  297) = (   0.2352941   0.3529412   0.4870335), wk =   0.0032567
        k(  298) = (   0.2352941   0.4117647   0.0000000), wk =   0.0016283
        k(  299) = (   0.2352941   0.4117647   0.0608792), wk =   0.0032567
        k(  300) = (   0.2352941   0.4117647   0.1217584), wk =   0.0032567
        k(  301) = (   0.2352941   0.4117647   0.1826376), wk =   0.0032567
        k(  302) = (   0.2352941   0.4117647   0.2435168), wk =   0.0032567
        k(  303) = (   0.2352941   0.4117647   0.3043960), wk =   0.0032567
        k(  304) = (   0.2352941   0.4117647   0.3652751), wk =   0.0032567
        k(  305) = (   0.2352941   0.4117647   0.4261543), wk =   0.0032567
        k(  306) = (   0.2352941   0.4117647   0.4870335), wk =   0.0032567
        k(  307) = (   0.2352941   0.4705882   0.0000000), wk =   0.0016283
        k(  308) = (   0.2352941   0.4705882   0.0608792), wk =   0.0032567
        k(  309) = (   0.2352941   0.4705882   0.1217584), wk =   0.0032567
        k(  310) = (   0.2352941   0.4705882   0.1826376), wk =   0.0032567
        k(  311) = (   0.2352941   0.4705882   0.2435168), wk =   0.0032567
        k(  312) = (   0.2352941   0.4705882   0.3043960), wk =   0.0032567
        k(  313) = (   0.2352941   0.4705882   0.3652751), wk =   0.0032567
        k(  314) = (   0.2352941   0.4705882   0.4261543), wk =   0.0032567
        k(  315) = (   0.2352941   0.4705882   0.4870335), wk =   0.0032567
        k(  316) = (   0.2941176   0.2941176   0.0000000), wk =   0.0008142
        k(  317) = (   0.2941176   0.2941176   0.0608792), wk =   0.0016283
        k(  318) = (   0.2941176   0.2941176   0.1217584), wk =   0.0016283
        k(  319) = (   0.2941176   0.2941176   0.1826376), wk =   0.0016283
        k(  320) = (   0.2941176   0.2941176   0.2435168), wk =   0.0016283
        k(  321) = (   0.2941176   0.2941176   0.3043960), wk =   0.0016283
        k(  322) = (   0.2941176   0.2941176   0.3652751), wk =   0.0016283
        k(  323) = (   0.2941176   0.2941176   0.4261543), wk =   0.0016283
        k(  324) = (   0.2941176   0.2941176   0.4870335), wk =   0.0016283
        k(  325) = (   0.2941176   0.3529412   0.0000000), wk =   0.0016283
        k(  326) = (   0.2941176   0.3529412   0.0608792), wk =   0.0032567
        k(  327) = (   0.2941176   0.3529412   0.1217584), wk =   0.0032567
        k(  328) = (   0.2941176   0.3529412   0.1826376), wk =   0.0032567
        k(  329) = (   0.2941176   0.3529412   0.2435168), wk =   0.0032567
        k(  330) = (   0.2941176   0.3529412   0.3043960), wk =   0.0032567
        k(  331) = (   0.2941176   0.3529412   0.3652751), wk =   0.0032567
        k(  332) = (   0.2941176   0.3529412   0.4261543), wk =   0.0032567
        k(  333) = (   0.2941176   0.3529412   0.4870335), wk =   0.0032567
        k(  334) = (   0.2941176   0.4117647   0.0000000), wk =   0.0016283
        k(  335) = (   0.2941176   0.4117647   0.0608792), wk =   0.0032567
        k(  336) = (   0.2941176   0.4117647   0.1217584), wk =   0.0032567
        k(  337) = (   0.2941176   0.4117647   0.1826376), wk =   0.0032567
        k(  338) = (   0.2941176   0.4117647   0.2435168), wk =   0.0032567
        k(  339) = (   0.2941176   0.4117647   0.3043960), wk =   0.0032567
        k(  340) = (   0.2941176   0.4117647   0.3652751), wk =   0.0032567
        k(  341) = (   0.2941176   0.4117647   0.4261543), wk =   0.0032567
        k(  342) = (   0.2941176   0.4117647   0.4870335), wk =   0.0032567
        k(  343) = (   0.2941176   0.4705882   0.0000000), wk =   0.0016283
        k(  344) = (   0.2941176   0.4705882   0.0608792), wk =   0.0032567
        k(  345) = (   0.2941176   0.4705882   0.1217584), wk =   0.0032567
        k(  346) = (   0.2941176   0.4705882   0.1826376), wk =   0.0032567
        k(  347) = (   0.2941176   0.4705882   0.2435168), wk =   0.0032567
        k(  348) = (   0.2941176   0.4705882   0.3043960), wk =   0.0032567
        k(  349) = (   0.2941176   0.4705882   0.3652751), wk =   0.0032567
        k(  350) = (   0.2941176   0.4705882   0.4261543), wk =   0.0032567
        k(  351) = (   0.2941176   0.4705882   0.4870335), wk =   0.0032567
        k(  352) = (   0.3529412   0.3529412   0.0000000), wk =   0.0008142
        k(  353) = (   0.3529412   0.3529412   0.0608792), wk =   0.0016283
        k(  354) = (   0.3529412   0.3529412   0.1217584), wk =   0.0016283
        k(  355) = (   0.3529412   0.3529412   0.1826376), wk =   0.0016283
        k(  356) = (   0.3529412   0.3529412   0.2435168), wk =   0.0016283
        k(  357) = (   0.3529412   0.3529412   0.3043960), wk =   0.0016283
        k(  358) = (   0.3529412   0.3529412   0.3652751), wk =   0.0016283
        k(  359) = (   0.3529412   0.3529412   0.4261543), wk =   0.0016283
        k(  360) = (   0.3529412   0.3529412   0.4870335), wk =   0.0016283
        k(  361) = (   0.3529412   0.4117647   0.0000000), wk =   0.0016283
        k(  362) = (   0.3529412   0.4117647   0.0608792), wk =   0.0032567
        k(  363) = (   0.3529412   0.4117647   0.1217584), wk =   0.0032567
        k(  364) = (   0.3529412   0.4117647   0.1826376), wk =   0.0032567
        k(  365) = (   0.3529412   0.4117647   0.2435168), wk =   0.0032567
        k(  366) = (   0.3529412   0.4117647   0.3043960), wk =   0.0032567
        k(  367) = (   0.3529412   0.4117647   0.3652751), wk =   0.0032567
        k(  368) = (   0.3529412   0.4117647   0.4261543), wk =   0.0032567
        k(  369) = (   0.3529412   0.4117647   0.4870335), wk =   0.0032567
        k(  370) = (   0.3529412   0.4705882   0.0000000), wk =   0.0016283
        k(  371) = (   0.3529412   0.4705882   0.0608792), wk =   0.0032567
        k(  372) = (   0.3529412   0.4705882   0.1217584), wk =   0.0032567
        k(  373) = (   0.3529412   0.4705882   0.1826376), wk =   0.0032567
        k(  374) = (   0.3529412   0.4705882   0.2435168), wk =   0.0032567
        k(  375) = (   0.3529412   0.4705882   0.3043960), wk =   0.0032567
        k(  376) = (   0.3529412   0.4705882   0.3652751), wk =   0.0032567
        k(  377) = (   0.3529412   0.4705882   0.4261543), wk =   0.0032567
        k(  378) = (   0.3529412   0.4705882   0.4870335), wk =   0.0032567
        k(  379) = (   0.4117647   0.4117647   0.0000000), wk =   0.0008142
        k(  380) = (   0.4117647   0.4117647   0.0608792), wk =   0.0016283
        k(  381) = (   0.4117647   0.4117647   0.1217584), wk =   0.0016283
        k(  382) = (   0.4117647   0.4117647   0.1826376), wk =   0.0016283
        k(  383) = (   0.4117647   0.4117647   0.2435168), wk =   0.0016283
        k(  384) = (   0.4117647   0.4117647   0.3043960), wk =   0.0016283
        k(  385) = (   0.4117647   0.4117647   0.3652751), wk =   0.0016283
        k(  386) = (   0.4117647   0.4117647   0.4261543), wk =   0.0016283
        k(  387) = (   0.4117647   0.4117647   0.4870335), wk =   0.0016283
        k(  388) = (   0.4117647   0.4705882   0.0000000), wk =   0.0016283
        k(  389) = (   0.4117647   0.4705882   0.0608792), wk =   0.0032567
        k(  390) = (   0.4117647   0.4705882   0.1217584), wk =   0.0032567
        k(  391) = (   0.4117647   0.4705882   0.1826376), wk =   0.0032567
        k(  392) = (   0.4117647   0.4705882   0.2435168), wk =   0.0032567
        k(  393) = (   0.4117647   0.4705882   0.3043960), wk =   0.0032567
        k(  394) = (   0.4117647   0.4705882   0.3652751), wk =   0.0032567
        k(  395) = (   0.4117647   0.4705882   0.4261543), wk =   0.0032567
        k(  396) = (   0.4117647   0.4705882   0.4870335), wk =   0.0032567
        k(  397) = (   0.4705882   0.4705882   0.0000000), wk =   0.0008142
        k(  398) = (   0.4705882   0.4705882   0.0608792), wk =   0.0016283
        k(  399) = (   0.4705882   0.4705882   0.1217584), wk =   0.0016283
        k(  400) = (   0.4705882   0.4705882   0.1826376), wk =   0.0016283
        k(  401) = (   0.4705882   0.4705882   0.2435168), wk =   0.0016283
        k(  402) = (   0.4705882   0.4705882   0.3043960), wk =   0.0016283
        k(  403) = (   0.4705882   0.4705882   0.3652751), wk =   0.0016283
        k(  404) = (   0.4705882   0.4705882   0.4261543), wk =   0.0016283
        k(  405) = (   0.4705882   0.4705882   0.4870335), wk =   0.0016283

                       cryst. coord.
        k(    1) = (   0.0000000   0.0000000   0.0000000), wk =   0.0002035
        k(    2) = (   0.0000000   0.0000000   0.0588235), wk =   0.0004071
        k(    3) = (   0.0000000   0.0000000   0.1176471), wk =   0.0004071
        k(    4) = (   0.0000000   0.0000000   0.1764706), wk =   0.0004071
        k(    5) = (   0.0000000   0.0000000   0.2352941), wk =   0.0004071
        k(    6) = (   0.0000000   0.0000000   0.2941176), wk =   0.0004071
        k(    7) = (   0.0000000   0.0000000   0.3529412), wk =   0.0004071
        k(    8) = (   0.0000000   0.0000000   0.4117647), wk =   0.0004071
        k(    9) = (   0.0000000   0.0000000   0.4705882), wk =   0.0004071
        k(   10) = (   0.0000000   0.0588235   0.0000000), wk =   0.0008142
        k(   11) = (   0.0000000   0.0588235   0.0588235), wk =   0.0016283
        k(   12) = (   0.0000000   0.0588235   0.1176471), wk =   0.0016283
        k(   13) = (   0.0000000   0.0588235   0.1764706), wk =   0.0016283
        k(   14) = (   0.0000000   0.0588235   0.2352941), wk =   0.0016283
        k(   15) = (   0.0000000   0.0588235   0.2941176), wk =   0.0016283
        k(   16) = (   0.0000000   0.0588235   0.3529412), wk =   0.0016283
        k(   17) = (   0.0000000   0.0588235   0.4117647), wk =   0.0016283
        k(   18) = (   0.0000000   0.0588235   0.4705882), wk =   0.0016283
        k(   19) = (   0.0000000   0.1176471   0.0000000), wk =   0.0008142
        k(   20) = (   0.0000000   0.1176471   0.0588235), wk =   0.0016283
        k(   21) = (   0.0000000   0.1176471   0.1176471), wk =   0.0016283
        k(   22) = (   0.0000000   0.1176471   0.1764706), wk =   0.0016283
        k(   23) = (   0.0000000   0.1176471   0.2352941), wk =   0.0016283
        k(   24) = (   0.0000000   0.1176471   0.2941176), wk =   0.0016283
        k(   25) = (   0.0000000   0.1176471   0.3529412), wk =   0.0016283
        k(   26) = (   0.0000000   0.1176471   0.4117647), wk =   0.0016283
        k(   27) = (   0.0000000   0.1176471   0.4705882), wk =   0.0016283
        k(   28) = (   0.0000000   0.1764706   0.0000000), wk =   0.0008142
        k(   29) = (   0.0000000   0.1764706   0.0588235), wk =   0.0016283
        k(   30) = (   0.0000000   0.1764706   0.1176471), wk =   0.0016283
        k(   31) = (   0.0000000   0.1764706   0.1764706), wk =   0.0016283
        k(   32) = (   0.0000000   0.1764706   0.2352941), wk =   0.0016283
        k(   33) = (   0.0000000   0.1764706   0.2941176), wk =   0.0016283
        k(   34) = (   0.0000000   0.1764706   0.3529412), wk =   0.0016283
        k(   35) = (   0.0000000   0.1764706   0.4117647), wk =   0.0016283
        k(   36) = (   0.0000000   0.1764706   0.4705882), wk =   0.0016283
        k(   37) = (   0.0000000   0.2352941   0.0000000), wk =   0.0008142
        k(   38) = (   0.0000000   0.2352941   0.0588235), wk =   0.0016283
        k(   39) = (   0.0000000   0.2352941   0.1176471), wk =   0.0016283
        k(   40) = (   0.0000000   0.2352941   0.1764706), wk =   0.0016283
        k(   41) = (   0.0000000   0.2352941   0.2352941), wk =   0.0016283
        k(   42) = (   0.0000000   0.2352941   0.2941176), wk =   0.0016283
        k(   43) = (   0.0000000   0.2352941   0.3529412), wk =   0.0016283
        k(   44) = (   0.0000000   0.2352941   0.4117647), wk =   0.0016283
        k(   45) = (   0.0000000   0.2352941   0.4705882), wk =   0.0016283
        k(   46) = (   0.0000000   0.2941176   0.0000000), wk =   0.0008142
        k(   47) = (   0.0000000   0.2941176   0.0588235), wk =   0.0016283
        k(   48) = (   0.0000000   0.2941176   0.1176471), wk =   0.0016283
        k(   49) = (   0.0000000   0.2941176   0.1764706), wk =   0.0016283
        k(   50) = (   0.0000000   0.2941176   0.2352941), wk =   0.0016283
        k(   51) = (   0.0000000   0.2941176   0.2941176), wk =   0.0016283
        k(   52) = (   0.0000000   0.2941176   0.3529412), wk =   0.0016283
        k(   53) = (   0.0000000   0.2941176   0.4117647), wk =   0.0016283
        k(   54) = (   0.0000000   0.2941176   0.4705882), wk =   0.0016283
        k(   55) = (   0.0000000   0.3529412   0.0000000), wk =   0.0008142
        k(   56) = (   0.0000000   0.3529412   0.0588235), wk =   0.0016283
        k(   57) = (   0.0000000   0.3529412   0.1176471), wk =   0.0016283
        k(   58) = (   0.0000000   0.3529412   0.1764706), wk =   0.0016283
        k(   59) = (   0.0000000   0.3529412   0.2352941), wk =   0.0016283
        k(   60) = (   0.0000000   0.3529412   0.2941176), wk =   0.0016283
        k(   61) = (   0.0000000   0.3529412   0.3529412), wk =   0.0016283
        k(   62) = (   0.0000000   0.3529412   0.4117647), wk =   0.0016283
        k(   63) = (   0.0000000   0.3529412   0.4705882), wk =   0.0016283
        k(   64) = (   0.0000000   0.4117647   0.0000000), wk =   0.0008142
        k(   65) = (   0.0000000   0.4117647   0.0588235), wk =   0.0016283
        k(   66) = (   0.0000000   0.4117647   0.1176471), wk =   0.0016283
        k(   67) = (   0.0000000   0.4117647   0.1764706), wk =   0.0016283
        k(   68) = (   0.0000000   0.4117647   0.2352941), wk =   0.0016283
        k(   69) = (   0.0000000   0.4117647   0.2941176), wk =   0.0016283
        k(   70) = (   0.0000000   0.4117647   0.3529412), wk =   0.0016283
        k(   71) = (   0.0000000   0.4117647   0.4117647), wk =   0.0016283
        k(   72) = (   0.0000000   0.4117647   0.4705882), wk =   0.0016283
        k(   73) = (   0.0000000   0.4705882   0.0000000), wk =   0.0008142
        k(   74) = (   0.0000000   0.4705882   0.0588235), wk =   0.0016283
        k(   75) = (   0.0000000   0.4705882   0.1176471), wk =   0.0016283
        k(   76) = (   0.0000000   0.4705882   0.1764706), wk =   0.0016283
        k(   77) = (   0.0000000   0.4705882   0.2352941), wk =   0.0016283
        k(   78) = (   0.0000000   0.4705882   0.2941176), wk =   0.0016283
        k(   79) = (   0.0000000   0.4705882   0.3529412), wk =   0.0016283
        k(   80) = (   0.0000000   0.4705882   0.4117647), wk =   0.0016283
        k(   81) = (   0.0000000   0.4705882   0.4705882), wk =   0.0016283
        k(   82) = (   0.0588235   0.0588235   0.0000000), wk =   0.0008142
        k(   83) = (   0.0588235   0.0588235   0.0588235), wk =   0.0016283
        k(   84) = (   0.0588235   0.0588235   0.1176471), wk =   0.0016283
        k(   85) = (   0.0588235   0.0588235   0.1764706), wk =   0.0016283
        k(   86) = (   0.0588235   0.0588235   0.2352941), wk =   0.0016283
        k(   87) = (   0.0588235   0.0588235   0.2941176), wk =   0.0016283
        k(   88) = (   0.0588235   0.0588235   0.3529412), wk =   0.0016283
        k(   89) = (   0.0588235   0.0588235   0.4117647), wk =   0.0016283
        k(   90) = (   0.0588235   0.0588235   0.4705882), wk =   0.0016283
        k(   91) = (   0.0588235   0.1176471   0.0000000), wk =   0.0016283
        k(   92) = (   0.0588235   0.1176471   0.0588235), wk =   0.0032567
        k(   93) = (   0.0588235   0.1176471   0.1176471), wk =   0.0032567
        k(   94) = (   0.0588235   0.1176471   0.1764706), wk =   0.0032567
        k(   95) = (   0.0588235   0.1176471   0.2352941), wk =   0.0032567
        k(   96) = (   0.0588235   0.1176471   0.2941176), wk =   0.0032567
        k(   97) = (   0.0588235   0.1176471   0.3529412), wk =   0.0032567
        k(   98) = (   0.0588235   0.1176471   0.4117647), wk =   0.0032567
        k(   99) = (   0.0588235   0.1176471   0.4705882), wk =   0.0032567
        k(  100) = (   0.0588235   0.1764706   0.0000000), wk =   0.0016283
        k(  101) = (   0.0588235   0.1764706   0.0588235), wk =   0.0032567
        k(  102) = (   0.0588235   0.1764706   0.1176471), wk =   0.0032567
        k(  103) = (   0.0588235   0.1764706   0.1764706), wk =   0.0032567
        k(  104) = (   0.0588235   0.1764706   0.2352941), wk =   0.0032567
        k(  105) = (   0.0588235   0.1764706   0.2941176), wk =   0.0032567
        k(  106) = (   0.0588235   0.1764706   0.3529412), wk =   0.0032567
        k(  107) = (   0.0588235   0.1764706   0.4117647), wk =   0.0032567
        k(  108) = (   0.0588235   0.1764706   0.4705882), wk =   0.0032567
        k(  109) = (   0.0588235   0.2352941   0.0000000), wk =   0.0016283
        k(  110) = (   0.0588235   0.2352941   0.0588235), wk =   0.0032567
        k(  111) = (   0.0588235   0.2352941   0.1176471), wk =   0.0032567
        k(  112) = (   0.0588235   0.2352941   0.1764706), wk =   0.0032567
        k(  113) = (   0.0588235   0.2352941   0.2352941), wk =   0.0032567
        k(  114) = (   0.0588235   0.2352941   0.2941176), wk =   0.0032567
        k(  115) = (   0.0588235   0.2352941   0.3529412), wk =   0.0032567
        k(  116) = (   0.0588235   0.2352941   0.4117647), wk =   0.0032567
        k(  117) = (   0.0588235   0.2352941   0.4705882), wk =   0.0032567
        k(  118) = (   0.0588235   0.2941176   0.0000000), wk =   0.0016283
        k(  119) = (   0.0588235   0.2941176   0.0588235), wk =   0.0032567
        k(  120) = (   0.0588235   0.2941176   0.1176471), wk =   0.0032567
        k(  121) = (   0.0588235   0.2941176   0.1764706), wk =   0.0032567
        k(  122) = (   0.0588235   0.2941176   0.2352941), wk =   0.0032567
        k(  123) = (   0.0588235   0.2941176   0.2941176), wk =   0.0032567
        k(  124) = (   0.0588235   0.2941176   0.3529412), wk =   0.0032567
        k(  125) = (   0.0588235   0.2941176   0.4117647), wk =   0.0032567
        k(  126) = (   0.0588235   0.2941176   0.4705882), wk =   0.0032567
        k(  127) = (   0.0588235   0.3529412   0.0000000), wk =   0.0016283
        k(  128) = (   0.0588235   0.3529412   0.0588235), wk =   0.0032567
        k(  129) = (   0.0588235   0.3529412   0.1176471), wk =   0.0032567
        k(  130) = (   0.0588235   0.3529412   0.1764706), wk =   0.0032567
        k(  131) = (   0.0588235   0.3529412   0.2352941), wk =   0.0032567
        k(  132) = (   0.0588235   0.3529412   0.2941176), wk =   0.0032567
        k(  133) = (   0.0588235   0.3529412   0.3529412), wk =   0.0032567
        k(  134) = (   0.0588235   0.3529412   0.4117647), wk =   0.0032567
        k(  135) = (   0.0588235   0.3529412   0.4705882), wk =   0.0032567
        k(  136) = (   0.0588235   0.4117647   0.0000000), wk =   0.0016283
        k(  137) = (   0.0588235   0.4117647   0.0588235), wk =   0.0032567
        k(  138) = (   0.0588235   0.4117647   0.1176471), wk =   0.0032567
        k(  139) = (   0.0588235   0.4117647   0.1764706), wk =   0.0032567
        k(  140) = (   0.0588235   0.4117647   0.2352941), wk =   0.0032567
        k(  141) = (   0.0588235   0.4117647   0.2941176), wk =   0.0032567
        k(  142) = (   0.0588235   0.4117647   0.3529412), wk =   0.0032567
        k(  143) = (   0.0588235   0.4117647   0.4117647), wk =   0.0032567
        k(  144) = (   0.0588235   0.4117647   0.4705882), wk =   0.0032567
        k(  145) = (   0.0588235   0.4705882   0.0000000), wk =   0.0016283
        k(  146) = (   0.0588235   0.4705882   0.0588235), wk =   0.0032567
        k(  147) = (   0.0588235   0.4705882   0.1176471), wk =   0.0032567
        k(  148) = (   0.0588235   0.4705882   0.1764706), wk =   0.0032567
        k(  149) = (   0.0588235   0.4705882   0.2352941), wk =   0.0032567
        k(  150) = (   0.0588235   0.4705882   0.2941176), wk =   0.0032567
        k(  151) = (   0.0588235   0.4705882   0.3529412), wk =   0.0032567
        k(  152) = (   0.0588235   0.4705882   0.4117647), wk =   0.0032567
        k(  153) = (   0.0588235   0.4705882   0.4705882), wk =   0.0032567
        k(  154) = (   0.1176471   0.1176471   0.0000000), wk =   0.0008142
        k(  155) = (   0.1176471   0.1176471   0.0588235), wk =   0.0016283
        k(  156) = (   0.1176471   0.1176471   0.1176471), wk =   0.0016283
        k(  157) = (   0.1176471   0.1176471   0.1764706), wk =   0.0016283
        k(  158) = (   0.1176471   0.1176471   0.2352941), wk =   0.0016283
        k(  159) = (   0.1176471   0.1176471   0.2941176), wk =   0.0016283
        k(  160) = (   0.1176471   0.1176471   0.3529412), wk =   0.0016283
        k(  161) = (   0.1176471   0.1176471   0.4117647), wk =   0.0016283
        k(  162) = (   0.1176471   0.1176471   0.4705882), wk =   0.0016283
        k(  163) = (   0.1176471   0.1764706   0.0000000), wk =   0.0016283
        k(  164) = (   0.1176471   0.1764706   0.0588235), wk =   0.0032567
        k(  165) = (   0.1176471   0.1764706   0.1176471), wk =   0.0032567
        k(  166) = (   0.1176471   0.1764706   0.1764706), wk =   0.0032567
        k(  167) = (   0.1176471   0.1764706   0.2352941), wk =   0.0032567
        k(  168) = (   0.1176471   0.1764706   0.2941176), wk =   0.0032567
        k(  169) = (   0.1176471   0.1764706   0.3529412), wk =   0.0032567
        k(  170) = (   0.1176471   0.1764706   0.4117647), wk =   0.0032567
        k(  171) = (   0.1176471   0.1764706   0.4705882), wk =   0.0032567
        k(  172) = (   0.1176471   0.2352941   0.0000000), wk =   0.0016283
        k(  173) = (   0.1176471   0.2352941   0.0588235), wk =   0.0032567
        k(  174) = (   0.1176471   0.2352941   0.1176471), wk =   0.0032567
        k(  175) = (   0.1176471   0.2352941   0.1764706), wk =   0.0032567
        k(  176) = (   0.1176471   0.2352941   0.2352941), wk =   0.0032567
        k(  177) = (   0.1176471   0.2352941   0.2941176), wk =   0.0032567
        k(  178) = (   0.1176471   0.2352941   0.3529412), wk =   0.0032567
        k(  179) = (   0.1176471   0.2352941   0.4117647), wk =   0.0032567
        k(  180) = (   0.1176471   0.2352941   0.4705882), wk =   0.0032567
        k(  181) = (   0.1176471   0.2941176   0.0000000), wk =   0.0016283
        k(  182) = (   0.1176471   0.2941176   0.0588235), wk =   0.0032567
        k(  183) = (   0.1176471   0.2941176   0.1176471), wk =   0.0032567
        k(  184) = (   0.1176471   0.2941176   0.1764706), wk =   0.0032567
        k(  185) = (   0.1176471   0.2941176   0.2352941), wk =   0.0032567
        k(  186) = (   0.1176471   0.2941176   0.2941176), wk =   0.0032567
        k(  187) = (   0.1176471   0.2941176   0.3529412), wk =   0.0032567
        k(  188) = (   0.1176471   0.2941176   0.4117647), wk =   0.0032567
        k(  189) = (   0.1176471   0.2941176   0.4705882), wk =   0.0032567
        k(  190) = (   0.1176471   0.3529412   0.0000000), wk =   0.0016283
        k(  191) = (   0.1176471   0.3529412   0.0588235), wk =   0.0032567
        k(  192) = (   0.1176471   0.3529412   0.1176471), wk =   0.0032567
        k(  193) = (   0.1176471   0.3529412   0.1764706), wk =   0.0032567
        k(  194) = (   0.1176471   0.3529412   0.2352941), wk =   0.0032567
        k(  195) = (   0.1176471   0.3529412   0.2941176), wk =   0.0032567
        k(  196) = (   0.1176471   0.3529412   0.3529412), wk =   0.0032567
        k(  197) = (   0.1176471   0.3529412   0.4117647), wk =   0.0032567
        k(  198) = (   0.1176471   0.3529412   0.4705882), wk =   0.0032567
        k(  199) = (   0.1176471   0.4117647   0.0000000), wk =   0.0016283
        k(  200) = (   0.1176471   0.4117647   0.0588235), wk =   0.0032567
        k(  201) = (   0.1176471   0.4117647   0.1176471), wk =   0.0032567
        k(  202) = (   0.1176471   0.4117647   0.1764706), wk =   0.0032567
        k(  203) = (   0.1176471   0.4117647   0.2352941), wk =   0.0032567
        k(  204) = (   0.1176471   0.4117647   0.2941176), wk =   0.0032567
        k(  205) = (   0.1176471   0.4117647   0.3529412), wk =   0.0032567
        k(  206) = (   0.1176471   0.4117647   0.4117647), wk =   0.0032567
        k(  207) = (   0.1176471   0.4117647   0.4705882), wk =   0.0032567
        k(  208) = (   0.1176471   0.4705882   0.0000000), wk =   0.0016283
        k(  209) = (   0.1176471   0.4705882   0.0588235), wk =   0.0032567
        k(  210) = (   0.1176471   0.4705882   0.1176471), wk =   0.0032567
        k(  211) = (   0.1176471   0.4705882   0.1764706), wk =   0.0032567
        k(  212) = (   0.1176471   0.4705882   0.2352941), wk =   0.0032567
        k(  213) = (   0.1176471   0.4705882   0.2941176), wk =   0.0032567
        k(  214) = (   0.1176471   0.4705882   0.3529412), wk =   0.0032567
        k(  215) = (   0.1176471   0.4705882   0.4117647), wk =   0.0032567
        k(  216) = (   0.1176471   0.4705882   0.4705882), wk =   0.0032567
        k(  217) = (   0.1764706   0.1764706   0.0000000), wk =   0.0008142
        k(  218) = (   0.1764706   0.1764706   0.0588235), wk =   0.0016283
        k(  219) = (   0.1764706   0.1764706   0.1176471), wk =   0.0016283
        k(  220) = (   0.1764706   0.1764706   0.1764706), wk =   0.0016283
        k(  221) = (   0.1764706   0.1764706   0.2352941), wk =   0.0016283
        k(  222) = (   0.1764706   0.1764706   0.2941176), wk =   0.0016283
        k(  223) = (   0.1764706   0.1764706   0.3529412), wk =   0.0016283
        k(  224) = (   0.1764706   0.1764706   0.4117647), wk =   0.0016283
        k(  225) = (   0.1764706   0.1764706   0.4705882), wk =   0.0016283
        k(  226) = (   0.1764706   0.2352941   0.0000000), wk =   0.0016283
        k(  227) = (   0.1764706   0.2352941   0.0588235), wk =   0.0032567
        k(  228) = (   0.1764706   0.2352941   0.1176471), wk =   0.0032567
        k(  229) = (   0.1764706   0.2352941   0.1764706), wk =   0.0032567
        k(  230) = (   0.1764706   0.2352941   0.2352941), wk =   0.0032567
        k(  231) = (   0.1764706   0.2352941   0.2941176), wk =   0.0032567
        k(  232) = (   0.1764706   0.2352941   0.3529412), wk =   0.0032567
        k(  233) = (   0.1764706   0.2352941   0.4117647), wk =   0.0032567
        k(  234) = (   0.1764706   0.2352941   0.4705882), wk =   0.0032567
        k(  235) = (   0.1764706   0.2941176   0.0000000), wk =   0.0016283
        k(  236) = (   0.1764706   0.2941176   0.0588235), wk =   0.0032567
        k(  237) = (   0.1764706   0.2941176   0.1176471), wk =   0.0032567
        k(  238) = (   0.1764706   0.2941176   0.1764706), wk =   0.0032567
        k(  239) = (   0.1764706   0.2941176   0.2352941), wk =   0.0032567
        k(  240) = (   0.1764706   0.2941176   0.2941176), wk =   0.0032567
        k(  241) = (   0.1764706   0.2941176   0.3529412), wk =   0.0032567
        k(  242) = (   0.1764706   0.2941176   0.4117647), wk =   0.0032567
        k(  243) = (   0.1764706   0.2941176   0.4705882), wk =   0.0032567
        k(  244) = (   0.1764706   0.3529412   0.0000000), wk =   0.0016283
        k(  245) = (   0.1764706   0.3529412   0.0588235), wk =   0.0032567
        k(  246) = (   0.1764706   0.3529412   0.1176471), wk =   0.0032567
        k(  247) = (   0.1764706   0.3529412   0.1764706), wk =   0.0032567
        k(  248) = (   0.1764706   0.3529412   0.2352941), wk =   0.0032567
        k(  249) = (   0.1764706   0.3529412   0.2941176), wk =   0.0032567
        k(  250) = (   0.1764706   0.3529412   0.3529412), wk =   0.0032567
        k(  251) = (   0.1764706   0.3529412   0.4117647), wk =   0.0032567
        k(  252) = (   0.1764706   0.3529412   0.4705882), wk =   0.0032567
        k(  253) = (   0.1764706   0.4117647   0.0000000), wk =   0.0016283
        k(  254) = (   0.1764706   0.4117647   0.0588235), wk =   0.0032567
        k(  255) = (   0.1764706   0.4117647   0.1176471), wk =   0.0032567
        k(  256) = (   0.1764706   0.4117647   0.1764706), wk =   0.0032567
        k(  257) = (   0.1764706   0.4117647   0.2352941), wk =   0.0032567
        k(  258) = (   0.1764706   0.4117647   0.2941176), wk =   0.0032567
        k(  259) = (   0.1764706   0.4117647   0.3529412), wk =   0.0032567
        k(  260) = (   0.1764706   0.4117647   0.4117647), wk =   0.0032567
        k(  261) = (   0.1764706   0.4117647   0.4705882), wk =   0.0032567
        k(  262) = (   0.1764706   0.4705882   0.0000000), wk =   0.0016283
        k(  263) = (   0.1764706   0.4705882   0.0588235), wk =   0.0032567
        k(  264) = (   0.1764706   0.4705882   0.1176471), wk =   0.0032567
        k(  265) = (   0.1764706   0.4705882   0.1764706), wk =   0.0032567
        k(  266) = (   0.1764706   0.4705882   0.2352941), wk =   0.0032567
        k(  267) = (   0.1764706   0.4705882   0.2941176), wk =   0.0032567
        k(  268) = (   0.1764706   0.4705882   0.3529412), wk =   0.0032567
        k(  269) = (   0.1764706   0.4705882   0.4117647), wk =   0.0032567
        k(  270) = (   0.1764706   0.4705882   0.4705882), wk =   0.0032567
        k(  271) = (   0.2352941   0.2352941   0.0000000), wk =   0.0008142
        k(  272) = (   0.2352941   0.2352941   0.0588235), wk =   0.0016283
        k(  273) = (   0.2352941   0.2352941   0.1176471), wk =   0.0016283
        k(  274) = (   0.2352941   0.2352941   0.1764706), wk =   0.0016283
        k(  275) = (   0.2352941   0.2352941   0.2352941), wk =   0.0016283
        k(  276) = (   0.2352941   0.2352941   0.2941176), wk =   0.0016283
        k(  277) = (   0.2352941   0.2352941   0.3529412), wk =   0.0016283
        k(  278) = (   0.2352941   0.2352941   0.4117647), wk =   0.0016283
        k(  279) = (   0.2352941   0.2352941   0.4705882), wk =   0.0016283
        k(  280) = (   0.2352941   0.2941176   0.0000000), wk =   0.0016283
        k(  281) = (   0.2352941   0.2941176   0.0588235), wk =   0.0032567
        k(  282) = (   0.2352941   0.2941176   0.1176471), wk =   0.0032567
        k(  283) = (   0.2352941   0.2941176   0.1764706), wk =   0.0032567
        k(  284) = (   0.2352941   0.2941176   0.2352941), wk =   0.0032567
        k(  285) = (   0.2352941   0.2941176   0.2941176), wk =   0.0032567
        k(  286) = (   0.2352941   0.2941176   0.3529412), wk =   0.0032567
        k(  287) = (   0.2352941   0.2941176   0.4117647), wk =   0.0032567
        k(  288) = (   0.2352941   0.2941176   0.4705882), wk =   0.0032567
        k(  289) = (   0.2352941   0.3529412   0.0000000), wk =   0.0016283
        k(  290) = (   0.2352941   0.3529412   0.0588235), wk =   0.0032567
        k(  291) = (   0.2352941   0.3529412   0.1176471), wk =   0.0032567
        k(  292) = (   0.2352941   0.3529412   0.1764706), wk =   0.0032567
        k(  293) = (   0.2352941   0.3529412   0.2352941), wk =   0.0032567
        k(  294) = (   0.2352941   0.3529412   0.2941176), wk =   0.0032567
        k(  295) = (   0.2352941   0.3529412   0.3529412), wk =   0.0032567
        k(  296) = (   0.2352941   0.3529412   0.4117647), wk =   0.0032567
        k(  297) = (   0.2352941   0.3529412   0.4705882), wk =   0.0032567
        k(  298) = (   0.2352941   0.4117647   0.0000000), wk =   0.0016283
        k(  299) = (   0.2352941   0.4117647   0.0588235), wk =   0.0032567
        k(  300) = (   0.2352941   0.4117647   0.1176471), wk =   0.0032567
        k(  301) = (   0.2352941   0.4117647   0.1764706), wk =   0.0032567
        k(  302) = (   0.2352941   0.4117647   0.2352941), wk =   0.0032567
        k(  303) = (   0.2352941   0.4117647   0.2941176), wk =   0.0032567
        k(  304) = (   0.2352941   0.4117647   0.3529412), wk =   0.0032567
        k(  305) = (   0.2352941   0.4117647   0.4117647), wk =   0.0032567
        k(  306) = (   0.2352941   0.4117647   0.4705882), wk =   0.0032567
        k(  307) = (   0.2352941   0.4705882   0.0000000), wk =   0.0016283
        k(  308) = (   0.2352941   0.4705882   0.0588235), wk =   0.0032567
        k(  309) = (   0.2352941   0.4705882   0.1176471), wk =   0.0032567
        k(  310) = (   0.2352941   0.4705882   0.1764706), wk =   0.0032567
        k(  311) = (   0.2352941   0.4705882   0.2352941), wk =   0.0032567
        k(  312) = (   0.2352941   0.4705882   0.2941176), wk =   0.0032567
        k(  313) = (   0.2352941   0.4705882   0.3529412), wk =   0.0032567
        k(  314) = (   0.2352941   0.4705882   0.4117647), wk =   0.0032567
        k(  315) = (   0.2352941   0.4705882   0.4705882), wk =   0.0032567
        k(  316) = (   0.2941176   0.2941176   0.0000000), wk =   0.0008142
        k(  317) = (   0.2941176   0.2941176   0.0588235), wk =   0.0016283
        k(  318) = (   0.2941176   0.2941176   0.1176471), wk =   0.0016283
        k(  319) = (   0.2941176   0.2941176   0.1764706), wk =   0.0016283
        k(  320) = (   0.2941176   0.2941176   0.2352941), wk =   0.0016283
        k(  321) = (   0.2941176   0.2941176   0.2941176), wk =   0.0016283
        k(  322) = (   0.2941176   0.2941176   0.3529412), wk =   0.0016283
        k(  323) = (   0.2941176   0.2941176   0.4117647), wk =   0.0016283
        k(  324) = (   0.2941176   0.2941176   0.4705882), wk =   0.0016283
        k(  325) = (   0.2941176   0.3529412   0.0000000), wk =   0.0016283
        k(  326) = (   0.2941176   0.3529412   0.0588235), wk =   0.0032567
        k(  327) = (   0.2941176   0.3529412   0.1176471), wk =   0.0032567
        k(  328) = (   0.2941176   0.3529412   0.1764706), wk =   0.0032567
        k(  329) = (   0.2941176   0.3529412   0.2352941), wk =   0.0032567
        k(  330) = (   0.2941176   0.3529412   0.2941176), wk =   0.0032567
        k(  331) = (   0.2941176   0.3529412   0.3529412), wk =   0.0032567
        k(  332) = (   0.2941176   0.3529412   0.4117647), wk =   0.0032567
        k(  333) = (   0.2941176   0.3529412   0.4705882), wk =   0.0032567
        k(  334) = (   0.2941176   0.4117647   0.0000000), wk =   0.0016283
        k(  335) = (   0.2941176   0.4117647   0.0588235), wk =   0.0032567
        k(  336) = (   0.2941176   0.4117647   0.1176471), wk =   0.0032567
        k(  337) = (   0.2941176   0.4117647   0.1764706), wk =   0.0032567
        k(  338) = (   0.2941176   0.4117647   0.2352941), wk =   0.0032567
        k(  339) = (   0.2941176   0.4117647   0.2941176), wk =   0.0032567
        k(  340) = (   0.2941176   0.4117647   0.3529412), wk =   0.0032567
        k(  341) = (   0.2941176   0.4117647   0.4117647), wk =   0.0032567
        k(  342) = (   0.2941176   0.4117647   0.4705882), wk =   0.0032567
        k(  343) = (   0.2941176   0.4705882   0.0000000), wk =   0.0016283
        k(  344) = (   0.2941176   0.4705882   0.0588235), wk =   0.0032567
        k(  345) = (   0.2941176   0.4705882   0.1176471), wk =   0.0032567
        k(  346) = (   0.2941176   0.4705882   0.1764706), wk =   0.0032567
        k(  347) = (   0.2941176   0.4705882   0.2352941), wk =   0.0032567
        k(  348) = (   0.2941176   0.4705882   0.2941176), wk =   0.0032567
        k(  349) = (   0.2941176   0.4705882   0.3529412), wk =   0.0032567
        k(  350) = (   0.2941176   0.4705882   0.4117647), wk =   0.0032567
        k(  351) = (   0.2941176   0.4705882   0.4705882), wk =   0.0032567
        k(  352) = (   0.3529412   0.3529412   0.0000000), wk =   0.0008142
        k(  353) = (   0.3529412   0.3529412   0.0588235), wk =   0.0016283
        k(  354) = (   0.3529412   0.3529412   0.1176471), wk =   0.0016283
        k(  355) = (   0.3529412   0.3529412   0.1764706), wk =   0.0016283
        k(  356) = (   0.3529412   0.3529412   0.2352941), wk =   0.0016283
        k(  357) = (   0.3529412   0.3529412   0.2941176), wk =   0.0016283
        k(  358) = (   0.3529412   0.3529412   0.3529412), wk =   0.0016283
        k(  359) = (   0.3529412   0.3529412   0.4117647), wk =   0.0016283
        k(  360) = (   0.3529412   0.3529412   0.4705882), wk =   0.0016283
        k(  361) = (   0.3529412   0.4117647   0.0000000), wk =   0.0016283
        k(  362) = (   0.3529412   0.4117647   0.0588235), wk =   0.0032567
        k(  363) = (   0.3529412   0.4117647   0.1176471), wk =   0.0032567
        k(  364) = (   0.3529412   0.4117647   0.1764706), wk =   0.0032567
        k(  365) = (   0.3529412   0.4117647   0.2352941), wk =   0.0032567
        k(  366) = (   0.3529412   0.4117647   0.2941176), wk =   0.0032567
        k(  367) = (   0.3529412   0.4117647   0.3529412), wk =   0.0032567
        k(  368) = (   0.3529412   0.4117647   0.4117647), wk =   0.0032567
        k(  369) = (   0.3529412   0.4117647   0.4705882), wk =   0.0032567
        k(  370) = (   0.3529412   0.4705882   0.0000000), wk =   0.0016283
        k(  371) = (   0.3529412   0.4705882   0.0588235), wk =   0.0032567
        k(  372) = (   0.3529412   0.4705882   0.1176471), wk =   0.0032567
        k(  373) = (   0.3529412   0.4705882   0.1764706), wk =   0.0032567
        k(  374) = (   0.3529412   0.4705882   0.2352941), wk =   0.0032567
        k(  375) = (   0.3529412   0.4705882   0.2941176), wk =   0.0032567
        k(  376) = (   0.3529412   0.4705882   0.3529412), wk =   0.0032567
        k(  377) = (   0.3529412   0.4705882   0.4117647), wk =   0.0032567
        k(  378) = (   0.3529412   0.4705882   0.4705882), wk =   0.0032567
        k(  379) = (   0.4117647   0.4117647   0.0000000), wk =   0.0008142
        k(  380) = (   0.4117647   0.4117647   0.0588235), wk =   0.0016283
        k(  381) = (   0.4117647   0.4117647   0.1176471), wk =   0.0016283
        k(  382) = (   0.4117647   0.4117647   0.1764706), wk =   0.0016283
        k(  383) = (   0.4117647   0.4117647   0.2352941), wk =   0.0016283
        k(  384) = (   0.4117647   0.4117647   0.2941176), wk =   0.0016283
        k(  385) = (   0.4117647   0.4117647   0.3529412), wk =   0.0016283
        k(  386) = (   0.4117647   0.4117647   0.4117647), wk =   0.0016283
        k(  387) = (   0.4117647   0.4117647   0.4705882), wk =   0.0016283
        k(  388) = (   0.4117647   0.4705882   0.0000000), wk =   0.0016283
        k(  389) = (   0.4117647   0.4705882   0.0588235), wk =   0.0032567
        k(  390) = (   0.4117647   0.4705882   0.1176471), wk =   0.0032567
        k(  391) = (   0.4117647   0.4705882   0.1764706), wk =   0.0032567
        k(  392) = (   0.4117647   0.4705882   0.2352941), wk =   0.0032567
        k(  393) = (   0.4117647   0.4705882   0.2941176), wk =   0.0032567
        k(  394) = (   0.4117647   0.4705882   0.3529412), wk =   0.0032567
        k(  395) = (   0.4117647   0.4705882   0.4117647), wk =   0.0032567
        k(  396) = (   0.4117647   0.4705882   0.4705882), wk =   0.0032567
        k(  397) = (   0.4705882   0.4705882   0.0000000), wk =   0.0008142
        k(  398) = (   0.4705882   0.4705882   0.0588235), wk =   0.0016283
        k(  399) = (   0.4705882   0.4705882   0.1176471), wk =   0.0016283
        k(  400) = (   0.4705882   0.4705882   0.1764706), wk =   0.0016283
        k(  401) = (   0.4705882   0.4705882   0.2352941), wk =   0.0016283
        k(  402) = (   0.4705882   0.4705882   0.2941176), wk =   0.0016283
        k(  403) = (   0.4705882   0.4705882   0.3529412), wk =   0.0016283
        k(  404) = (   0.4705882   0.4705882   0.4117647), wk =   0.0016283
        k(  405) = (   0.4705882   0.4705882   0.4705882), wk =   0.0016283

     Dense  grid:   222881 G-vectors     FFT dimensions: (  80,  80,  75)

     Smooth grid:    42923 G-vectors     FFT dimensions: (  45,  45,  45)

     Dynamical RAM for                 wfc:       1.64 MB

     Dynamical RAM for     wfc (w. buffer):    1327.82 MB

     Dynamical RAM for           str. fact:       6.80 MB

     Dynamical RAM for           local pot:       0.00 MB

     Dynamical RAM for          nlocal pot:       2.95 MB

     Dynamical RAM for                qrad:       5.27 MB

     Dynamical RAM for          rho,v,vnew:      42.38 MB

     Dynamical RAM for               rhoin:      14.13 MB

     Dynamical RAM for            rho*nmix:     108.83 MB

     Dynamical RAM for           G-vectors:      13.08 MB

     Dynamical RAM for          h,s,v(r/c):       0.07 MB

     Dynamical RAM for          <psi|beta>:       0.01 MB

     Dynamical RAM for                 psi:       3.27 MB

     Dynamical RAM for                hpsi:       3.27 MB

     Dynamical RAM for                spsi:       3.27 MB

     Dynamical RAM for      wfcinit/wfcrot:       4.11 MB

     Dynamical RAM for           addusdens:     639.37 MB

     Dynamical RAM for          addusforce:     639.38 MB

     Dynamical RAM for         addusstress:     688.68 MB

     Estimated static dynamical RAM per process >       1.41 GB

     Estimated max dynamical RAM per process >       2.19 GB

     Check: negative core charge=   -0.000003
     Generating pointlists ...
     new r_m :   0.3533 (alat units)  2.5701 (a.u.) for type    1
     new r_m :   0.3533 (alat units)  2.5701 (a.u.) for type    2

     Initial potential from superposition of free atoms

     starting charge   31.49958, renormalised to   32.00000

     negative rho (up, down):  1.219E-01 6.384E-02
     Starting wfcs are   25 randomized atomic wfcs
     Checking if some PAW data can be deallocated... 

     total cpu time spent up to now is        6.0 secs

     Self-consistent Calculation
[tb_dev] Currently allocated     2.38E+01 Mbytes, locked:    0 /  10
[tb_pin] Currently allocated     0.00E+00 Mbytes, locked:    0 /   0

     iteration #  1     ecut=    90.00 Ry     beta= 0.40
     Davidson diagonalization with overlap

---- Real-time Memory Report at c_bands before calling an iterative solver
          3125 MiB given to the printing process from OS
             0 MiB allocation reported by mallinfo(arena+hblkhd)
          5214 MiB available memory on the node where the printing process lives
     GPU memory used/free/total (MiB): 1224 / 22878 / 24102
------------------
     ethr =  1.00E-02,  avg # of iterations =  2.0

     negative rho (up, down):  1.074E-01 6.794E-02

     total cpu time spent up to now is       15.5 secs

     total energy              =    -536.54766197 Ry
     estimated scf accuracy    <       1.63258187 Ry

     total magnetization       =     5.85 Bohr mag/cell
     absolute magnetization    =     6.00 Bohr mag/cell
[tb_dev] Currently allocated     1.23E+03 Mbytes, locked:    0 /  15
[tb_pin] Currently allocated     6.83E+00 Mbytes, locked:    0 /   2

     iteration #  2     ecut=    90.00 Ry     beta= 0.40
     Davidson diagonalization with overlap

---- Real-time Memory Report at c_bands before calling an iterative solver
          3261 MiB given to the printing process from OS
             0 MiB allocation reported by mallinfo(arena+hblkhd)
          5077 MiB available memory on the node where the printing process lives
     GPU memory used/free/total (MiB): 2492 / 21610 / 24102
------------------
     ethr =  5.10E-03,  avg # of iterations =  2.1

     negative rho (up, down):  1.045E-01 7.232E-02

     total cpu time spent up to now is       24.9 secs

     total energy              =    -536.77695654 Ry
     estimated scf accuracy    <       1.65061122 Ry

     total magnetization       =     4.96 Bohr mag/cell
     absolute magnetization    =     5.01 Bohr mag/cell
[tb_dev] Currently allocated     1.23E+03 Mbytes, locked:    0 /  15
[tb_pin] Currently allocated     6.83E+00 Mbytes, locked:    0 /   2

     iteration #  3     ecut=    90.00 Ry     beta= 0.40
     Davidson diagonalization with overlap

---- Real-time Memory Report at c_bands before calling an iterative solver
          3265 MiB given to the printing process from OS
             0 MiB allocation reported by mallinfo(arena+hblkhd)
          5085 MiB available memory on the node where the printing process lives
     GPU memory used/free/total (MiB): 2490 / 21612 / 24102
------------------
     ethr =  5.10E-03,  avg # of iterations =  1.9

     negative rho (up, down):  1.024E-01 7.376E-02

     total cpu time spent up to now is       33.8 secs

     total energy              =    -536.49828952 Ry
     estimated scf accuracy    <      10.17457573 Ry

     total magnetization       =     3.87 Bohr mag/cell
     absolute magnetization    =     4.13 Bohr mag/cell
[tb_dev] Currently allocated     1.23E+03 Mbytes, locked:    0 /  15
[tb_pin] Currently allocated     6.83E+00 Mbytes, locked:    0 /   2

     iteration #  4     ecut=    90.00 Ry     beta= 0.40
     Davidson diagonalization with overlap

---- Real-time Memory Report at c_bands before calling an iterative solver
          3268 MiB given to the printing process from OS
             0 MiB allocation reported by mallinfo(arena+hblkhd)
          5053 MiB available memory on the node where the printing process lives
     GPU memory used/free/total (MiB): 2472 / 21630 / 24102
------------------
     ethr =  5.10E-03,  avg # of iterations =  1.3

     negative rho (up, down):  8.959E-02 8.511E-02

     total cpu time spent up to now is       41.9 secs

     total energy              =    -537.05061193 Ry
     estimated scf accuracy    <       0.55822692 Ry

     total magnetization       =     4.76 Bohr mag/cell
     absolute magnetization    =     4.89 Bohr mag/cell
[tb_dev] Currently allocated     1.23E+03 Mbytes, locked:    0 /  15
[tb_pin] Currently allocated     6.83E+00 Mbytes, locked:    0 /   2

     iteration #  5     ecut=    90.00 Ry     beta= 0.40
     Davidson diagonalization with overlap

---- Real-time Memory Report at c_bands before calling an iterative solver
          3272 MiB given to the printing process from OS
             0 MiB allocation reported by mallinfo(arena+hblkhd)
          5026 MiB available memory on the node where the printing process lives
[...]
     8.2403   9.1904  10.5669  11.4023

     occupation numbers 
     1.0000   1.0000   1.0000   1.0000   1.0000   1.0000   1.0000   1.0000
     1.0000   1.0000   1.0000   1.0000   1.0000   1.0831   1.0555   0.0000
     0.0000   0.0000   0.0000   0.0000

          k = 0.4118 0.4118 0.4262 (  5385 PWs)   bands (ev):

   -78.0277 -44.2663 -44.2658 -44.2658 -43.5902 -43.5760 -43.5760   5.4672
     5.6104   5.6323   6.6524   6.7034   6.7400   7.2654   7.3121   8.2437
     8.2611   9.4013  10.7597  11.9967

     occupation numbers 
     1.0000   1.0000   1.0000   1.0000   1.0000   1.0000   1.0000   1.0000
     1.0000   1.0000   1.0000   1.0000   1.0000   1.0753   1.0820   0.0000
     0.0000   0.0000   0.0000   0.0000

          k = 0.4118 0.4118 0.4870 (  5376 PWs)   bands (ev):

   -78.0277 -44.2665 -44.2658 -44.2658 -43.5906 -43.5760 -43.5760   5.4710
     5.5783   5.6367   6.6554   6.6969   6.9794   7.2325   7.2522   8.2453
     8.2859   9.5816  10.8332  11.7588

     occupation numbers 
     1.0000   1.0000   1.0000   1.0000   1.0000   1.0000   1.0000   1.0000
     1.0000   1.0000   1.0000   1.0000   1.0004   1.0588   1.0692   0.0000
     0.0000   0.0000   0.0000   0.0000

          k = 0.4118 0.4706 0.0000 (  5389 PWs)   bands (ev):

   -78.0277 -44.2662 -44.2661 -44.2645 -43.5849 -43.5764 -43.5762   4.9369
     5.0780   6.0984   6.1196   6.8184   7.0513   7.8216   7.9790   7.9888
     8.0170   8.0937   8.5317  10.0200

     occupation numbers 
     1.0000   1.0000   1.0000   1.0000   1.0000   1.0000   1.0000   1.0000
     1.0000   1.0000   1.0000   1.0000   1.0025   0.0019   0.0000   0.0000
     0.0000   0.0000   0.0000   0.0000

          k = 0.4118 0.4706 0.0609 (  5380 PWs)   bands (ev):

   -78.0277 -44.2662 -44.2661 -44.2646 -43.5851 -43.5764 -43.5761   4.9582
     5.1206   6.0778   6.0990   6.8147   7.0532   7.6548   7.8229   7.9788
     8.1485   8.2668   8.6588  10.0456

     occupation numbers 
     1.0000   1.0000   1.0000   1.0000   1.0000   1.0000   1.0000   1.0000
     1.0000   1.0000   1.0000   1.0000   1.0027   0.0849   0.0019   0.0000
     0.0000   0.0000   0.0000   0.0000

          k = 0.4118 0.4706 0.1218 (  5383 PWs)   bands (ev):

   -78.0277 -44.2662 -44.2661 -44.2648 -43.5856 -43.5764 -43.5761   5.0178
     5.2491   6.0187   6.0409   6.8030   7.0554   7.4668   7.6231   8.0066
     8.2151   8.5356   8.9665  10.1325

     occupation numbers 
     1.0000   1.0000   1.0000   1.0000   1.0000   1.0000   1.0000   1.0000
     1.0000   1.0000   1.0000   1.0000   1.0028   0.7189   0.1416   0.0000
     0.0000   0.0000   0.0000   0.0000

          k = 0.4118 0.4706 0.1826 (  5368 PWs)   bands (ev):

   -78.0277 -44.2661 -44.2660 -44.2651 -43.5865 -43.5763 -43.5761   5.1070
     5.4591   5.9299   5.9549   6.7828   7.0482   7.3334   7.4753   8.0504
     8.2348   8.8041   9.3430  10.3074

     occupation numbers 
     1.0000   1.0000   1.0000   1.0000   1.0000   1.0000   1.0000   1.0000
     1.0000   1.0000   1.0000   1.0000   1.0023   1.0721   0.6822   0.0000
     0.0000   0.0000   0.0000   0.0000

          k = 0.4118 0.4706 0.2435 (  5376 PWs)   bands (ev):

   -78.0277 -44.2661 -44.2660 -44.2654 -43.5875 -43.5763 -43.5761   5.2153
     5.7346   5.8268   5.8580   6.7554   7.0221   7.2539   7.3867   8.1053
     8.2443   9.0269   9.7368  10.5980

     occupation numbers 
     1.0000   1.0000   1.0000   1.0000   1.0000   1.0000   1.0000   1.0000
     1.0000   1.0000   1.0000   1.0000   1.0012   1.0700   0.9932   0.0000
     0.0000   0.0000   0.0000   0.0000

          k = 0.4118 0.4706 0.3044 (  5372 PWs)   bands (ev):

   -78.0277 -44.2660 -44.2659 -44.2658 -43.5885 -43.5763 -43.5760   5.3288
     5.7238   5.7517   6.0706   6.7253   6.9852   7.2075   7.3462   8.1647
     8.2505   9.2046  10.1184  11.0026

     occupation numbers 
     1.0000   1.0000   1.0000   1.0000   1.0000   1.0000   1.0000   1.0000
     1.0000   1.0000   1.0000   1.0000   1.0004   1.0451   1.0609   0.0000
     0.0000   0.0000   0.0000   0.0000

          k = 0.4118 0.4706 0.3653 (  5373 PWs)   bands (ev):

   -78.0277 -44.2661 -44.2659 -44.2658 -43.5895 -43.5762 -43.5760   5.4281
     5.6419   5.6668   6.4130   6.6982   6.9526   7.1785   7.3233   8.2202
     8.2555   9.3680  10.4702  11.4775

     occupation numbers 
     1.0000   1.0000   1.0000   1.0000   1.0000   1.0000   1.0000   1.0000
     1.0000   1.0000   1.0000   1.0000   1.0002   1.0308   1.0781   0.0000
     0.0000   0.0000   0.0000   0.0000

          k = 0.4118 0.4706 0.4262 (  5379 PWs)   bands (ev):

   -78.0277 -44.2663 -44.2659 -44.2658 -43.5902 -43.5762 -43.5760   5.4851
     5.5998   5.6073   6.6738   6.7319   6.9314   7.1600   7.2873   8.2538
     8.2687   9.5402  10.7837  11.8518

     occupation numbers 
     1.0000   1.0000   1.0000   1.0000   1.0000   1.0000   1.0000   1.0000
     1.0000   1.0000   1.0000   1.0000   1.0001   1.0232   1.0821   0.0000
     0.0000   0.0000   0.0000   0.0000

          k = 0.4118 0.4706 0.4870 (  5373 PWs)   bands (ev):

   -78.0277 -44.2664 -44.2659 -44.2658 -43.5906 -43.5762 -43.5760   5.4893
     5.5713   5.6096   6.6659   6.9169   6.9669   7.1386   7.2294   8.2574
     8.2907   9.6831  11.0135  11.7996

     occupation numbers 
     1.0000   1.0000   1.0000   1.0000   1.0000   1.0000   1.0000   1.0000
     1.0000   1.0000   1.0000   1.0000   1.0002   1.0162   1.0571   0.0000
     0.0000   0.0000   0.0000   0.0000

          k = 0.4706 0.4706 0.0000 (  5396 PWs)   bands (ev):

   -78.0277 -44.2662 -44.2662 -44.2645 -43.5849 -43.5764 -43.5764   4.9223
     5.0949   6.0845   6.0891   6.9907   7.0809   7.9819   8.0204   8.0300
     8.1522   8.1699   8.4444   9.5929

     occupation numbers 
     1.0000   1.0000   1.0000   1.0000   1.0000   1.0000   1.0000   1.0000
     1.0000   1.0000   1.0000   1.0005   1.0051   0.0000   0.0000   0.0000
     0.0000   0.0000   0.0000   0.0000

          k = 0.4706 0.4706 0.0609 (  5393 PWs)   bands (ev):

   -78.0277 -44.2662 -44.2662 -44.2646 -43.5850 -43.5764 -43.5764   4.9422
     5.1390   6.0651   6.0693   6.9905   7.0851   7.7792   7.8274   7.9949
     8.2353   8.4349   8.6411   9.6031

     occupation numbers 
     1.0000   1.0000   1.0000   1.0000   1.0000   1.0000   1.0000   1.0000
     1.0000   1.0000   1.0000   1.0005   1.0056   0.0060   0.0016   0.0000
     0.0000   0.0000   0.0000   0.0000

          k = 0.4706 0.4706 0.1218 (  5367 PWs)   bands (ev):

   -78.0277 -44.2662 -44.2662 -44.2648 -43.5856 -43.5763 -43.5763   4.9999
     5.2696   6.0095   6.0125   6.9895   7.0953   7.5421   7.5889   8.0216
     8.2521   8.7953   9.0395   9.6466

     occupation numbers 
     1.0000   1.0000   1.0000   1.0000   1.0000   1.0000   1.0000   1.0000
     1.0000   1.0000   1.0000   1.0005   1.0069   0.3938   0.2291   0.0000
     0.0000   0.0000   0.0000   0.0000

          k = 0.4706 0.4706 0.1826 (  5370 PWs)   bands (ev):

   -78.0277 -44.2661 -44.2661 -44.2651 -43.5864 -43.5763 -43.5763   5.0895
     5.4797   5.9257   5.9272   6.9861   7.1017   7.3680   7.3997   8.0635
     8.2579   9.1160   9.5117   9.7786

     occupation numbers 
     1.0000   1.0000   1.0000   1.0000   1.0000   1.0000   1.0000   1.0000
     1.0000   1.0000   1.0000   1.0004   1.0079   1.0308   0.9607   0.0000
     0.0000   0.0000   0.0000   0.0000

          k = 0.4706 0.4706 0.2435 (  5358 PWs)   bands (ev):

   -78.0277 -44.2661 -44.2660 -44.2654 -43.5875 -43.5763 -43.5763   5.2013
     5.7553   5.8267   5.8281   6.9771   7.0796   7.2640   7.2739   8.1162
     8.2618   9.3097  10.0362  10.0748

     occupation numbers 
     1.0000   1.0000   1.0000   1.0000   1.0000   1.0000   1.0000   1.0000
     1.0000   1.0000   1.0000   1.0003   1.0049   1.0747   1.0785   0.0000
     0.0000   0.0000   0.0000   0.0000

          k = 0.4706 0.4706 0.3044 (  5371 PWs)   bands (ev):

   -78.0277 -44.2660 -44.2660 -44.2657 -43.5885 -43.5763 -43.5763   5.3216
     5.7256   5.7275   6.0798   6.9588   7.0224   7.1781   7.2510   8.1734
     8.2650   9.4169  10.4631  10.6053

     occupation numbers 
     1.0000   1.0000   1.0000   1.0000   1.0000   1.0000   1.0000   1.0000
     1.0000   1.0000   1.0000   1.0002   1.0012   1.0306   1.0686   0.0000
     0.0000   0.0000   0.0000   0.0000

          k = 0.4706 0.4706 0.3653 (  5380 PWs)   bands (ev):

   -78.0277 -44.2661 -44.2659 -44.2659 -43.5895 -43.5762 -43.5762   5.4337
     5.6396   5.6415   6.4145   6.9326   6.9666   7.1330   7.2448   8.2274
     8.2677   9.5184  10.7818  11.2126

     occupation numbers 
     1.0000   1.0000   1.0000   1.0000   1.0000   1.0000   1.0000   1.0000
     1.0000   1.0000   1.0000   1.0001   1.0002   1.0146   1.0654   0.0000
     0.0000   0.0000   0.0000   0.0000

          k = 0.4706 0.4706 0.4262 (  5373 PWs)   bands (ev):

   -78.0277 -44.2663 -44.2659 -44.2659 -43.5902 -43.5762 -43.5762   5.5171
     5.5789   5.5811   6.7182   6.9078   6.9285   7.1130   7.2187   8.2697
     8.2697   9.6406  10.9764  11.8873

     occupation numbers 
     1.0000   1.0000   1.0000   1.0000   1.0000   1.0000   1.0000   1.0000
     1.0000   1.0000   1.0000   1.0000   1.0001   1.0100   1.0512   0.0000
     0.0000   0.0000   0.0000   0.0000

          k = 0.4706 0.4706 0.4870 (  5385 PWs)   bands (ev):

   -78.0277 -44.2664 -44.2659 -44.2659 -43.5906 -43.5762 -43.5762   5.5320
     5.5462   5.5814   6.8935   6.9041   6.9462   7.1058   7.1560   8.2707
     8.2930   9.7453  11.0841  12.2008

     occupation numbers 
     1.0000   1.0000   1.0000   1.0000   1.0000   1.0000   1.0000   1.0000
     1.0000   1.0000   1.0000   1.0000   1.0001   1.0086   1.0218   0.0000
     0.0000   0.0000   0.0000   0.0000

     the Fermi energy is     7.5404 ev

!    total energy              =    -537.13196832 Ry
     estimated scf accuracy    <          1.8E-11 Ry
     smearing contrib. (-TS)   =      -0.00109197 Ry
     internal energy E=F+TS    =    -537.13087635 Ry

     The total energy is F=E-TS. E is the sum of the following terms:
     one-electron contribution =    -247.44017681 Ry
     hartree contribution      =     134.00876653 Ry
     xc contribution           =     -90.58375259 Ry
     ewald contribution        =    -259.04891382 Ry
     one-center paw contrib.   =     -74.06679967 Ry
      -> PAW hartree energy AE =     196.86628505 Ry
      -> PAW hartree energy PS =    -196.00394618 Ry
      -> PAW xc energy AE      =    -108.47999523 Ry
      -> PAW xc energy PS      =      33.55085670 Ry
      -> total E_H with PAW    =     134.87110540 Ry
      -> total E_XC with PAW   =    -165.51289112 Ry

     total magnetization       =     3.87 Bohr mag/cell
     absolute magnetization    =     4.01 Bohr mag/cell

     convergence has been achieved in  19 iterations

     negative rho (up, down):  8.894E-02 8.649E-02

     Forces acting on atoms (cartesian axes, Ry/au):

     atom    1 type  1   force =     0.00000000    0.00000000    0.00000000
     atom    2 type  2   force =     0.00000000    0.00000000    0.00000000
     The non-local contrib.  to forces
     atom    1 type  1   force =     0.00000000    0.00000000    0.00000000
     atom    2 type  2   force =     0.00000000    0.00000000    0.00000000
     The ionic contribution  to forces
     atom    1 type  1   force =    -0.00000000   -0.00000000   -0.00000000
     atom    2 type  2   force =    -0.00000000   -0.00000000    0.00000000
     The local contribution  to forces
     atom    1 type  1   force =     0.00000000   -0.00000000    0.00000000
     atom    2 type  2   force =     0.00000000    0.00000000    0.00000000
     The core correction contribution to forces
     atom    1 type  1   force =     0.00000000   -0.00000000    0.00000000
     atom    2 type  2   force =     0.00000000    0.00000000   -0.00000000
     The Hubbard contrib.    to forces
     atom    1 type  1   force =     0.00000000    0.00000000    0.00000000
     atom    2 type  2   force =     0.00000000    0.00000000    0.00000000
     The SCF correction term to forces
     atom    1 type  1   force =     0.00000000    0.00000000    0.00000000
     atom    2 type  2   force =     0.00000000   -0.00000000   -0.00000000

     Total force =     0.000000     Total SCF correction =     0.000000


     Computing stress (Cartesian axis) and pressure


     negative rho (up, down):  8.894E-02 8.649E-02
          total   stress  (Ry/bohr**3)                   (kbar)     P=     -259.00
  -0.00175332   0.00000000   0.00000000         -257.92        0.00        0.00
   0.00000000  -0.00175332   0.00000000            0.00     -257.92        0.00
   0.00000000   0.00000000  -0.00177533            0.00        0.00     -261.16

     kinetic stress (kbar)  30338.41      0.00      0.00
                                0.00  30338.41      0.00
                                0.00      0.00  30332.04

     local   stress (kbar)   6152.11     -0.00      0.00
                               -0.00   6152.11     -0.00
                                0.00     -0.00   5753.70

     nonloc. stress (kbar) -12087.76      0.00      0.00
                                0.00 -12087.76      0.00
                                0.00      0.00 -12104.34

     hartree stress (kbar)  17602.55     -0.00     -0.00
                               -0.00  17602.55      0.00
                               -0.00      0.00  17773.44

     exc-cor stress (kbar)  10603.94      0.00      0.00
                                0.00  10603.94     -0.00
                                0.00     -0.00  10603.87

     corecor stress (kbar) -18647.52     -0.00      0.00
                               -0.00 -18647.52     -0.00
                                0.00     -0.00 -18647.72

     ewald   stress (kbar) -34219.64     -0.00     -0.00
                               -0.00 -34219.64     -0.00
                               -0.00     -0.00 -33972.15

     hubbard stress (kbar)      0.00      0.00      0.00
                                0.00      0.00      0.00
                                0.00      0.00      0.00

     DFT-D   stress (kbar)      0.00      0.00      0.00
                                0.00      0.00      0.00
                                0.00      0.00      0.00

     XDM     stress (kbar)      0.00      0.00      0.00
                                0.00      0.00      0.00
                                0.00      0.00      0.00

     dft-nl  stress (kbar)      0.00      0.00      0.00
                                0.00      0.00      0.00
                                0.00      0.00      0.00

     TS-vdW  stress (kbar)      0.00      0.00      0.00
                                0.00      0.00      0.00
                                0.00      0.00      0.00


                                0.00      0.00      0.00
                                0.00      0.00      0.00


                                0.00      0.00      0.00


     Writing output data file ./fept/out/aiida.save/
 
     init_run     :      5.37s CPU      5.76s WALL (       1 calls)
     electrons    :    197.55s CPU    200.32s WALL (       1 calls)
     forces       :      0.98s CPU      0.96s WALL (       1 calls)
     stress       :     13.53s CPU      9.27s WALL (       1 calls)

     Called by init_run:
     wfcinit      :      4.01s CPU      4.42s WALL (       1 calls)
                                        4.42s GPU  (       1 calls)
     wfcinit:atom :      0.13s CPU      0.15s WALL (     810 calls)
                                        0.10s GPU  (     810 calls)
     wfcinit:wfcr :      2.60s CPU      2.72s WALL (     810 calls)
                                        2.71s GPU  (     810 calls)
     potinit      :      0.51s CPU      0.35s WALL (       1 calls)
     hinit0       :      0.39s CPU      0.33s WALL (       1 calls)

     Called by electrons:
     c_bands      :    173.06s CPU    177.98s WALL (      19 calls)
     sum_band     :     16.60s CPU     16.49s WALL (      19 calls)
     v_of_rho     :      3.02s CPU      2.34s WALL (      20 calls)
     v_h          :      0.19s CPU      0.11s WALL (      20 calls)
     v_xc         :      3.11s CPU      2.44s WALL (      22 calls)
     newd         :      0.46s CPU      0.77s WALL (      20 calls)
                                        0.77s GPU  (      20 calls)
     PAW_pot      :      3.86s CPU      2.57s WALL (      20 calls)
     mix_rho      :      0.72s CPU      0.45s WALL (      19 calls)

     Called by c_bands:
     init_us_2_gp :      3.65s CPU      4.04s WALL (   33210 calls)
     cegterg      :    165.84s CPU    168.95s WALL (   15390 calls)

     Called by sum_band:
     sum_band:wei :      0.12s CPU      0.12s WALL (      19 calls)
                                        0.12s GPU  (      19 calls)
     sum_band:loo :     15.57s CPU     15.63s WALL (      19 calls)
                                       15.63s GPU  (      19 calls)
     sum_band:buf :      2.64s CPU      2.72s WALL (   15390 calls)
                                        2.67s GPU  (   15390 calls)
     sum_band:ini :      1.88s CPU      3.72s WALL (   15390 calls)
                                        3.67s GPU  (   15390 calls)
     sum_band:cal :      0.13s CPU      2.06s WALL (   15390 calls)
                                        1.93s GPU  (   15390 calls)
     sum_band:bec :      0.96s CPU      1.03s WALL (   15390 calls)
                                        0.98s GPU  (   15390 calls)
     addusdens    :      0.43s CPU      0.43s WALL (      19 calls)
                                        0.43s GPU  (      19 calls)
     addusd:skk   :      0.00s CPU      0.20s WALL (      38 calls)
                                        0.00s GPU  (      38 calls)

     Called by *egterg:
     cdiaghg      :     64.22s CPU     64.55s WALL (   49761 calls)
                                       64.32s GPU  (   49761 calls)
     cegterg:over :     35.55s CPU     35.65s WALL (   34371 calls)
     cegterg:upda :      3.51s CPU      3.52s WALL (   34371 calls)
     cegterg:last :      4.80s CPU      4.81s WALL (   27122 calls)
     h_psi        :     38.60s CPU     40.52s WALL (   50571 calls)
                                       40.18s GPU  (   50571 calls)
     s_psi        :      1.04s CPU      6.30s WALL (   50571 calls)
                                        6.08s GPU  (   50571 calls)
     g_psi        :      0.06s CPU      0.43s WALL (   34371 calls)
                                        0.33s GPU  (   34371 calls)

     Called by h_psi:
     h_psi:calbec :      0.42s CPU      5.82s WALL (   50571 calls)
                                        5.66s GPU  (   50571 calls)
     vloc_psi     :     26.53s CPU     28.20s WALL (   50571 calls)
                                       27.79s GPU  (   50571 calls)
     add_vuspsi   :      0.44s CPU      5.75s WALL (   50571 calls)
                                        5.60s GPU  (   50571 calls)

     General routines
     calbec       :      0.51s CPU      0.53s WALL (   70011 calls)
     fft          :      3.40s CPU      1.73s WALL (     538 calls)
                                        0.02s GPU  (      48 calls)
     ffts         :      0.07s CPU      0.04s WALL (      78 calls)
     fftw         :      1.09s CPU     32.93s WALL (  195110 calls)
                                       29.89s GPU  (  195110 calls)
     interpolate  :      0.33s CPU      0.17s WALL (      40 calls)
 
     Parallel routines

     PAW routines
     PAW_pot      :      3.86s CPU      2.57s WALL (      20 calls)
     PAW_symme    :      0.01s CPU      0.01s WALL (      39 calls)
 
     PWSCF        :    218.32s CPU    217.33s WALL

 
   This run was terminated on:   5: 4:11  28Feb2025            

=------------------------------------------------------------------------------=
   JOB DONE.
=------------------------------------------------------------------------------=
Warning: ieee_invalid is signaling
Warning: ieee_divide_by_zero is signaling
Warning: ieee_underflow is signaling
Warning: ieee_inexact is signaling
FORTRAN STOP
