
     Program PWSCF v.6.8 starts on 27Feb2025 at  2:56:25 

     This program is part of the open-source Quantum ESPRESSO suite
     for quantum simulation of materials; please cite
         "P. Giannozzi et al., J. Phys.:Condens. Matter 21 395502 (2009);
         "P. Giannozzi et al., J. Phys.:Condens. Matter 29 465901 (2017);
         "P. Giannozzi et al., J. Chem. Phys. 152 154105 (2020);
          URL http://www.quantum-espresso.org", 
     in publications or presentations arising from this work. More details at
     http://www.quantum-espresso.org/quote

     Parallel version (MPI & OpenMP), running on       2 processor cores
     Number of MPI processes:                 1
     Threads/MPI process:                     2

     MPI processes distributed on     1 nodes
     6760 MiB available memory on the printing compute node when the environment starts
 
     Reading input from fept/pwscf.in

     Current dimensions of program PWSCF are:
     Max number of different atomic species (ntypx) = 10
     Max number of k-points (npk) =  40000
     Max angular momentum in pseudopotentials (lmaxx) =  4
     file Fe.pbesol-spn-kjpaw_psl.0.2.1.UPF: wavefunction(s)  3D renormalized
     Message from routine setup:
     using ibrav=0 with symmetry is DISCOURAGED, use correct ibrav instead

     Subspace diagonalization in iterative solution of the eigenvalue problem:
     a serial algorithm will be used

 
     G-vector sticks info
     --------------------
     sticks:   dense  smooth     PW     G-vecs:    dense   smooth      PW
     Sum        4545    1513    437               222881    42923    6659
 
     Using Slab Decomposition
 


     bravais-lattice index     =            0
     lattice parameter (alat)  =       7.2754  a.u.
     unit-cell volume          =     372.1011 (a.u.)^3
     number of atoms/cell      =            2
     number of atomic types    =            2
     number of electrons       =        32.00
     number of Kohn-Sham states=           20
     kinetic-energy cutoff     =      90.0000  Ry
     charge density cutoff     =    1080.0000  Ry
     scf convergence threshold =      4.0E-10
     mixing beta               =       0.4000
     number of iterations used =            8  plain     mixing
     Exchange-correlation= SLA  PW   PSX  PSC
                           (   1   4  10   8   0   0   0)

     GPU acceleration is ACTIVE.
     GPU-aware MPI enabled


     GPU used by master process:

        Device Number: 0
        Device name: NVIDIA GeForce RTX 4090
        Compute capability : 89
        Ratio of single to double precision performance  : 64
        Memory Clock Rate (KHz): 10501000
        Memory Bus Width (bits): 384
        Peak Memory Bandwidth (GB/s): ******

     celldm(1)=   7.275446  celldm(2)=   0.000000  celldm(3)=   0.000000
     celldm(4)=   0.000000  celldm(5)=   0.000000  celldm(6)=   0.000000

     crystal axes: (cart. coord. in units of alat)
               a(1) = (   1.000000   0.000000   0.000000 )  
               a(2) = (   0.000000   1.000000   0.000000 )  
               a(3) = (   0.000000   0.000000   0.966234 )  

     reciprocal axes: (cart. coord. in units 2 pi/alat)
               b(1) = (  1.000000  0.000000  0.000000 )  
               b(2) = (  0.000000  1.000000  0.000000 )  
               b(3) = (  0.000000  0.000000  1.034946 )  


     PseudoPot. # 1 for Fe read from file:
     ./fept/pseudo/Fe.pbesol-spn-kjpaw_psl.0.2.1.UPF
     MD5 check sum: 4d7ec5aa2156491519a4322664fbbf52
     Pseudo is Projector augmented-wave + core cor, Zval = 16.0
     Generated using "atomic" code by A. Dal Corso  v.6.0 svn rev. 13079
     Shape of augmentation charge: PSQ
     Using radial grid of 1191 points,  6 beta functions with: 
                l(1) =   0
                l(2) =   0
                l(3) =   1
                l(4) =   1
                l(5) =   2
                l(6) =   2
     Q(r) pseudized with 0 coefficients 


     PseudoPot. # 2 for Pt read from file:
     ./fept/pseudo/pt_pbesol_v1.4.uspp.F.UPF
     MD5 check sum: d14d547907f752a992688280a7473f8c
     Pseudo is Ultrasoft + core correction, Zval = 16.0
     Generated by new atomic code, or converted to UPF format
     Using radial grid of  985 points,  6 beta functions with: 
                l(1) =   0
                l(2) =   0
                l(3) =   1
                l(4) =   1
                l(5) =   2
                l(6) =   2
     Q(r) pseudized with  8 coefficients,  rinner =    1.300   1.300   1.300
                                                       1.300   1.300

     atomic species   valence    mass     pseudopotential
        Fe            16.00    55.84500     Fe( 1.00)
        Pt            16.00   195.08400     Pt( 1.00)

     Starting magnetic structure 
     atomic species   magnetization
        Fe           0.313
        Pt           0.313

     16 Sym. Ops., with inversion, found


                                    s                        frac. trans.

      isym =  1     identity                                     

 cryst.   s( 1) = (     1          0          0      )
                  (     0          1          0      )
                  (     0          0          1      )

 cart.    s( 1) = (  1.0000000  0.0000000  0.0000000 )
                  (  0.0000000  1.0000000  0.0000000 )
                  (  0.0000000  0.0000000  1.0000000 )


      isym =  2     180 deg rotation - cart. axis [0,0,1]        

 cryst.   s( 2) = (    -1          0          0      )
                  (     0         -1          0      )
                  (     0          0          1      )

 cart.    s( 2) = ( -1.0000000  0.0000000  0.0000000 )
                  (  0.0000000 -1.0000000  0.0000000 )
                  (  0.0000000  0.0000000  1.0000000 )


      isym =  3     180 deg rotation - cart. axis [0,1,0]        

 cryst.   s( 3) = (    -1          0          0      )
                  (     0          1          0      )
                  (     0          0         -1      )

 cart.    s( 3) = ( -1.0000000  0.0000000  0.0000000 )
                  (  0.0000000  1.0000000  0.0000000 )
                  (  0.0000000  0.0000000 -1.0000000 )


      isym =  4     180 deg rotation - cart. axis [1,0,0]        

 cryst.   s( 4) = (     1          0          0      )
                  (     0         -1          0      )
                  (     0          0         -1      )

 cart.    s( 4) = (  1.0000000  0.0000000  0.0000000 )
                  (  0.0000000 -1.0000000  0.0000000 )
                  (  0.0000000  0.0000000 -1.0000000 )


      isym =  5     180 deg rotation - cart. axis [1,1,0]        

 cryst.   s( 5) = (     0          1          0      )
                  (     1          0          0      )
                  (     0          0         -1      )

 cart.    s( 5) = (  0.0000000  1.0000000  0.0000000 )
                  (  1.0000000  0.0000000  0.0000000 )
                  (  0.0000000  0.0000000 -1.0000000 )


      isym =  6     180 deg rotation - cart. axis [1,-1,0]       

 cryst.   s( 6) = (     0         -1          0      )
                  (    -1          0          0      )
                  (     0          0         -1      )

 cart.    s( 6) = (  0.0000000 -1.0000000  0.0000000 )
                  ( -1.0000000  0.0000000  0.0000000 )
                  (  0.0000000  0.0000000 -1.0000000 )


      isym =  7      90 deg rotation - cart. axis [0,0,-1]       

 cryst.   s( 7) = (     0         -1          0      )
                  (     1          0          0      )
                  (     0          0          1      )

 cart.    s( 7) = (  0.0000000  1.0000000  0.0000000 )
                  ( -1.0000000  0.0000000  0.0000000 )
                  (  0.0000000  0.0000000  1.0000000 )


      isym =  8      90 deg rotation - cart. axis [0,0,1]        

 cryst.   s( 8) = (     0          1          0      )
                  (    -1          0          0      )
                  (     0          0          1      )

 cart.    s( 8) = (  0.0000000 -1.0000000  0.0000000 )
                  (  1.0000000  0.0000000  0.0000000 )
                  (  0.0000000  0.0000000  1.0000000 )


      isym =  9     inversion                                    

 cryst.   s( 9) = (    -1          0          0      )
                  (     0         -1          0      )
                  (     0          0         -1      )

 cart.    s( 9) = ( -1.0000000  0.0000000  0.0000000 )
                  (  0.0000000 -1.0000000  0.0000000 )
                  (  0.0000000  0.0000000 -1.0000000 )


      isym = 10     inv. 180 deg rotation - cart. axis [0,0,1]   

 cryst.   s(10) = (     1          0          0      )
                  (     0          1          0      )
                  (     0          0         -1      )

 cart.    s(10) = (  1.0000000  0.0000000  0.0000000 )
                  (  0.0000000  1.0000000  0.0000000 )
                  (  0.0000000  0.0000000 -1.0000000 )


      isym = 11     inv. 180 deg rotation - cart. axis [0,1,0]   

 cryst.   s(11) = (     1          0          0      )
                  (     0         -1          0      )
                  (     0          0          1      )

 cart.    s(11) = (  1.0000000  0.0000000  0.0000000 )
                  (  0.0000000 -1.0000000  0.0000000 )
                  (  0.0000000  0.0000000  1.0000000 )


      isym = 12     inv. 180 deg rotation - cart. axis [1,0,0]   

 cryst.   s(12) = (    -1          0          0      )
                  (     0          1          0      )
                  (     0          0          1      )

 cart.    s(12) = ( -1.0000000  0.0000000  0.0000000 )
                  (  0.0000000  1.0000000  0.0000000 )
                  (  0.0000000  0.0000000  1.0000000 )


      isym = 13     inv. 180 deg rotation - cart. axis [1,1,0]   

 cryst.   s(13) = (     0         -1          0      )
                  (    -1          0          0      )
                  (     0          0          1      )

 cart.    s(13) = (  0.0000000 -1.0000000  0.0000000 )
                  ( -1.0000000  0.0000000  0.0000000 )
                  (  0.0000000  0.0000000  1.0000000 )


      isym = 14     inv. 180 deg rotation - cart. axis [1,-1,0]  

 cryst.   s(14) = (     0          1          0      )
                  (     1          0          0      )
                  (     0          0          1      )

 cart.    s(14) = (  0.0000000  1.0000000  0.0000000 )
                  (  1.0000000  0.0000000  0.0000000 )
                  (  0.0000000  0.0000000  1.0000000 )


      isym = 15     inv.  90 deg rotation - cart. axis [0,0,-1]  

 cryst.   s(15) = (     0          1          0      )
                  (    -1          0          0      )
                  (     0          0         -1      )

 cart.    s(15) = (  0.0000000 -1.0000000  0.0000000 )
                  (  1.0000000  0.0000000  0.0000000 )
                  (  0.0000000  0.0000000 -1.0000000 )


      isym = 16     inv.  90 deg rotation - cart. axis [0,0,1]   

 cryst.   s(16) = (     0         -1          0      )
                  (     1          0          0      )
                  (     0          0         -1      )

 cart.    s(16) = (  0.0000000  1.0000000  0.0000000 )
                  ( -1.0000000  0.0000000  0.0000000 )
                  (  0.0000000  0.0000000 -1.0000000 )


   Cartesian axes

     site n.     atom                  positions (alat units)
         1           Fe  tau(   1) = (   0.0000000   0.0000000   0.0000000  )
         2           Pt  tau(   2) = (   0.5000000   0.5000000   0.4831169  )

   Crystallographic axes

     site n.     atom                  positions (cryst. coord.)
         1           Fe  tau(   1) = (  0.0000000  0.0000000  0.0000000  )
         2           Pt  tau(   2) = (  0.5000000  0.5000000  0.5000000  )

     number of k points=   147  Marzari-Vanderbilt smearing, width (Ry)=  0.0200
                       cart. coord. in units 2pi/alat
        k(    1) = (   0.0000000   0.0000000   0.0000000), wk =   0.0006887
        k(    2) = (   0.0000000   0.0000000   0.0862455), wk =   0.0013774
        k(    3) = (   0.0000000   0.0000000   0.1724910), wk =   0.0013774
        k(    4) = (   0.0000000   0.0000000   0.2587366), wk =   0.0013774
        k(    5) = (   0.0000000   0.0000000   0.3449821), wk =   0.0013774
        k(    6) = (   0.0000000   0.0000000   0.4312276), wk =   0.0013774
        k(    7) = (   0.0000000   0.0000000  -0.5174731), wk =   0.0006887
        k(    8) = (   0.0000000   0.0909091   0.0000000), wk =   0.0027548
        k(    9) = (   0.0000000   0.0909091   0.0862455), wk =   0.0055096
        k(   10) = (   0.0000000   0.0909091   0.1724910), wk =   0.0055096
        k(   11) = (   0.0000000   0.0909091   0.2587366), wk =   0.0055096
        k(   12) = (   0.0000000   0.0909091   0.3449821), wk =   0.0055096
        k(   13) = (   0.0000000   0.0909091   0.4312276), wk =   0.0055096
        k(   14) = (   0.0000000   0.0909091  -0.5174731), wk =   0.0027548
        k(   15) = (   0.0000000   0.1818182   0.0000000), wk =   0.0027548
        k(   16) = (   0.0000000   0.1818182   0.0862455), wk =   0.0055096
        k(   17) = (   0.0000000   0.1818182   0.1724910), wk =   0.0055096
        k(   18) = (   0.0000000   0.1818182   0.2587366), wk =   0.0055096
        k(   19) = (   0.0000000   0.1818182   0.3449821), wk =   0.0055096
        k(   20) = (   0.0000000   0.1818182   0.4312276), wk =   0.0055096
        k(   21) = (   0.0000000   0.1818182  -0.5174731), wk =   0.0027548
        k(   22) = (   0.0000000   0.2727273   0.0000000), wk =   0.0027548
        k(   23) = (   0.0000000   0.2727273   0.0862455), wk =   0.0055096
        k(   24) = (   0.0000000   0.2727273   0.1724910), wk =   0.0055096
        k(   25) = (   0.0000000   0.2727273   0.2587366), wk =   0.0055096
        k(   26) = (   0.0000000   0.2727273   0.3449821), wk =   0.0055096
        k(   27) = (   0.0000000   0.2727273   0.4312276), wk =   0.0055096
        k(   28) = (   0.0000000   0.2727273  -0.5174731), wk =   0.0027548
        k(   29) = (   0.0000000   0.3636364   0.0000000), wk =   0.0027548
        k(   30) = (   0.0000000   0.3636364   0.0862455), wk =   0.0055096
        k(   31) = (   0.0000000   0.3636364   0.1724910), wk =   0.0055096
        k(   32) = (   0.0000000   0.3636364   0.2587366), wk =   0.0055096
        k(   33) = (   0.0000000   0.3636364   0.3449821), wk =   0.0055096
        k(   34) = (   0.0000000   0.3636364   0.4312276), wk =   0.0055096
        k(   35) = (   0.0000000   0.3636364  -0.5174731), wk =   0.0027548
        k(   36) = (   0.0000000   0.4545455   0.0000000), wk =   0.0027548
        k(   37) = (   0.0000000   0.4545455   0.0862455), wk =   0.0055096
        k(   38) = (   0.0000000   0.4545455   0.1724910), wk =   0.0055096
        k(   39) = (   0.0000000   0.4545455   0.2587366), wk =   0.0055096
        k(   40) = (   0.0000000   0.4545455   0.3449821), wk =   0.0055096
        k(   41) = (   0.0000000   0.4545455   0.4312276), wk =   0.0055096
        k(   42) = (   0.0000000   0.4545455  -0.5174731), wk =   0.0027548
        k(   43) = (   0.0909091   0.0909091   0.0000000), wk =   0.0027548
        k(   44) = (   0.0909091   0.0909091   0.0862455), wk =   0.0055096
        k(   45) = (   0.0909091   0.0909091   0.1724910), wk =   0.0055096
        k(   46) = (   0.0909091   0.0909091   0.2587366), wk =   0.0055096
        k(   47) = (   0.0909091   0.0909091   0.3449821), wk =   0.0055096
        k(   48) = (   0.0909091   0.0909091   0.4312276), wk =   0.0055096
        k(   49) = (   0.0909091   0.0909091  -0.5174731), wk =   0.0027548
        k(   50) = (   0.0909091   0.1818182   0.0000000), wk =   0.0055096
        k(   51) = (   0.0909091   0.1818182   0.0862455), wk =   0.0110193
        k(   52) = (   0.0909091   0.1818182   0.1724910), wk =   0.0110193
        k(   53) = (   0.0909091   0.1818182   0.2587366), wk =   0.0110193
        k(   54) = (   0.0909091   0.1818182   0.3449821), wk =   0.0110193
        k(   55) = (   0.0909091   0.1818182   0.4312276), wk =   0.0110193
        k(   56) = (   0.0909091   0.1818182  -0.5174731), wk =   0.0055096
        k(   57) = (   0.0909091   0.2727273   0.0000000), wk =   0.0055096
        k(   58) = (   0.0909091   0.2727273   0.0862455), wk =   0.0110193
        k(   59) = (   0.0909091   0.2727273   0.1724910), wk =   0.0110193
        k(   60) = (   0.0909091   0.2727273   0.2587366), wk =   0.0110193
        k(   61) = (   0.0909091   0.2727273   0.3449821), wk =   0.0110193
        k(   62) = (   0.0909091   0.2727273   0.4312276), wk =   0.0110193
        k(   63) = (   0.0909091   0.2727273  -0.5174731), wk =   0.0055096
        k(   64) = (   0.0909091   0.3636364   0.0000000), wk =   0.0055096
        k(   65) = (   0.0909091   0.3636364   0.0862455), wk =   0.0110193
        k(   66) = (   0.0909091   0.3636364   0.1724910), wk =   0.0110193
        k(   67) = (   0.0909091   0.3636364   0.2587366), wk =   0.0110193
        k(   68) = (   0.0909091   0.3636364   0.3449821), wk =   0.0110193
        k(   69) = (   0.0909091   0.3636364   0.4312276), wk =   0.0110193
        k(   70) = (   0.0909091   0.3636364  -0.5174731), wk =   0.0055096
        k(   71) = (   0.0909091   0.4545455   0.0000000), wk =   0.0055096
        k(   72) = (   0.0909091   0.4545455   0.0862455), wk =   0.0110193
        k(   73) = (   0.0909091   0.4545455   0.1724910), wk =   0.0110193
        k(   74) = (   0.0909091   0.4545455   0.2587366), wk =   0.0110193
        k(   75) = (   0.0909091   0.4545455   0.3449821), wk =   0.0110193
        k(   76) = (   0.0909091   0.4545455   0.4312276), wk =   0.0110193
        k(   77) = (   0.0909091   0.4545455  -0.5174731), wk =   0.0055096
        k(   78) = (   0.1818182   0.1818182   0.0000000), wk =   0.0027548
        k(   79) = (   0.1818182   0.1818182   0.0862455), wk =   0.0055096
        k(   80) = (   0.1818182   0.1818182   0.1724910), wk =   0.0055096
        k(   81) = (   0.1818182   0.1818182   0.2587366), wk =   0.0055096
        k(   82) = (   0.1818182   0.1818182   0.3449821), wk =   0.0055096
        k(   83) = (   0.1818182   0.1818182   0.4312276), wk =   0.0055096
        k(   84) = (   0.1818182   0.1818182  -0.5174731), wk =   0.0027548
        k(   85) = (   0.1818182   0.2727273   0.0000000), wk =   0.0055096
        k(   86) = (   0.1818182   0.2727273   0.0862455), wk =   0.0110193
        k(   87) = (   0.1818182   0.2727273   0.1724910), wk =   0.0110193
        k(   88) = (   0.1818182   0.2727273   0.2587366), wk =   0.0110193
        k(   89) = (   0.1818182   0.2727273   0.3449821), wk =   0.0110193
        k(   90) = (   0.1818182   0.2727273   0.4312276), wk =   0.0110193
        k(   91) = (   0.1818182   0.2727273  -0.5174731), wk =   0.0055096
        k(   92) = (   0.1818182   0.3636364   0.0000000), wk =   0.0055096
        k(   93) = (   0.1818182   0.3636364   0.0862455), wk =   0.0110193
        k(   94) = (   0.1818182   0.3636364   0.1724910), wk =   0.0110193
        k(   95) = (   0.1818182   0.3636364   0.2587366), wk =   0.0110193
        k(   96) = (   0.1818182   0.3636364   0.3449821), wk =   0.0110193
        k(   97) = (   0.1818182   0.3636364   0.4312276), wk =   0.0110193
        k(   98) = (   0.1818182   0.3636364  -0.5174731), wk =   0.0055096
        k(   99) = (   0.1818182   0.4545455   0.0000000), wk =   0.0055096
        k(  100) = (   0.1818182   0.4545455   0.0862455), wk =   0.0110193
        k(  101) = (   0.1818182   0.4545455   0.1724910), wk =   0.0110193
        k(  102) = (   0.1818182   0.4545455   0.2587366), wk =   0.0110193
        k(  103) = (   0.1818182   0.4545455   0.3449821), wk =   0.0110193
        k(  104) = (   0.1818182   0.4545455   0.4312276), wk =   0.0110193
        k(  105) = (   0.1818182   0.4545455  -0.5174731), wk =   0.0055096
        k(  106) = (   0.2727273   0.2727273   0.0000000), wk =   0.0027548
        k(  107) = (   0.2727273   0.2727273   0.0862455), wk =   0.0055096
        k(  108) = (   0.2727273   0.2727273   0.1724910), wk =   0.0055096
        k(  109) = (   0.2727273   0.2727273   0.2587366), wk =   0.0055096
        k(  110) = (   0.2727273   0.2727273   0.3449821), wk =   0.0055096
        k(  111) = (   0.2727273   0.2727273   0.4312276), wk =   0.0055096
        k(  112) = (   0.2727273   0.2727273  -0.5174731), wk =   0.0027548
        k(  113) = (   0.2727273   0.3636364   0.0000000), wk =   0.0055096
        k(  114) = (   0.2727273   0.3636364   0.0862455), wk =   0.0110193
        k(  115) = (   0.2727273   0.3636364   0.1724910), wk =   0.0110193
        k(  116) = (   0.2727273   0.3636364   0.2587366), wk =   0.0110193
        k(  117) = (   0.2727273   0.3636364   0.3449821), wk =   0.0110193
        k(  118) = (   0.2727273   0.3636364   0.4312276), wk =   0.0110193
        k(  119) = (   0.2727273   0.3636364  -0.5174731), wk =   0.0055096
        k(  120) = (   0.2727273   0.4545455   0.0000000), wk =   0.0055096
        k(  121) = (   0.2727273   0.4545455   0.0862455), wk =   0.0110193
        k(  122) = (   0.2727273   0.4545455   0.1724910), wk =   0.0110193
        k(  123) = (   0.2727273   0.4545455   0.2587366), wk =   0.0110193
        k(  124) = (   0.2727273   0.4545455   0.3449821), wk =   0.0110193
        k(  125) = (   0.2727273   0.4545455   0.4312276), wk =   0.0110193
        k(  126) = (   0.2727273   0.4545455  -0.5174731), wk =   0.0055096
        k(  127) = (   0.3636364   0.3636364   0.0000000), wk =   0.0027548
        k(  128) = (   0.3636364   0.3636364   0.0862455), wk =   0.0055096
        k(  129) = (   0.3636364   0.3636364   0.1724910), wk =   0.0055096
        k(  130) = (   0.3636364   0.3636364   0.2587366), wk =   0.0055096
        k(  131) = (   0.3636364   0.3636364   0.3449821), wk =   0.0055096
        k(  132) = (   0.3636364   0.3636364   0.4312276), wk =   0.0055096
        k(  133) = (   0.3636364   0.3636364  -0.5174731), wk =   0.0027548
        k(  134) = (   0.3636364   0.4545455   0.0000000), wk =   0.0055096
        k(  135) = (   0.3636364   0.4545455   0.0862455), wk =   0.0110193
        k(  136) = (   0.3636364   0.4545455   0.1724910), wk =   0.0110193
        k(  137) = (   0.3636364   0.4545455   0.2587366), wk =   0.0110193
        k(  138) = (   0.3636364   0.4545455   0.3449821), wk =   0.0110193
        k(  139) = (   0.3636364   0.4545455   0.4312276), wk =   0.0110193
        k(  140) = (   0.3636364   0.4545455  -0.5174731), wk =   0.0055096
        k(  141) = (   0.4545455   0.4545455   0.0000000), wk =   0.0027548
        k(  142) = (   0.4545455   0.4545455   0.0862455), wk =   0.0055096
        k(  143) = (   0.4545455   0.4545455   0.1724910), wk =   0.0055096
        k(  144) = (   0.4545455   0.4545455   0.2587366), wk =   0.0055096
        k(  145) = (   0.4545455   0.4545455   0.3449821), wk =   0.0055096
        k(  146) = (   0.4545455   0.4545455   0.4312276), wk =   0.0055096
        k(  147) = (   0.4545455   0.4545455  -0.5174731), wk =   0.0027548

                       cryst. coord.
        k(    1) = (   0.0000000   0.0000000   0.0000000), wk =   0.0006887
        k(    2) = (   0.0000000   0.0000000   0.0833333), wk =   0.0013774
        k(    3) = (   0.0000000   0.0000000   0.1666667), wk =   0.0013774
        k(    4) = (   0.0000000   0.0000000   0.2500000), wk =   0.0013774
        k(    5) = (   0.0000000   0.0000000   0.3333333), wk =   0.0013774
        k(    6) = (   0.0000000   0.0000000   0.4166667), wk =   0.0013774
        k(    7) = (   0.0000000   0.0000000  -0.5000000), wk =   0.0006887
        k(    8) = (   0.0000000   0.0909091   0.0000000), wk =   0.0027548
        k(    9) = (   0.0000000   0.0909091   0.0833333), wk =   0.0055096
        k(   10) = (   0.0000000   0.0909091   0.1666667), wk =   0.0055096
        k(   11) = (   0.0000000   0.0909091   0.2500000), wk =   0.0055096
        k(   12) = (   0.0000000   0.0909091   0.3333333), wk =   0.0055096
        k(   13) = (   0.0000000   0.0909091   0.4166667), wk =   0.0055096
        k(   14) = (   0.0000000   0.0909091  -0.5000000), wk =   0.0027548
        k(   15) = (   0.0000000   0.1818182   0.0000000), wk =   0.0027548
        k(   16) = (   0.0000000   0.1818182   0.0833333), wk =   0.0055096
        k(   17) = (   0.0000000   0.1818182   0.1666667), wk =   0.0055096
        k(   18) = (   0.0000000   0.1818182   0.2500000), wk =   0.0055096
        k(   19) = (   0.0000000   0.1818182   0.3333333), wk =   0.0055096
        k(   20) = (   0.0000000   0.1818182   0.4166667), wk =   0.0055096
        k(   21) = (   0.0000000   0.1818182  -0.5000000), wk =   0.0027548
        k(   22) = (   0.0000000   0.2727273   0.0000000), wk =   0.0027548
        k(   23) = (   0.0000000   0.2727273   0.0833333), wk =   0.0055096
        k(   24) = (   0.0000000   0.2727273   0.1666667), wk =   0.0055096
        k(   25) = (   0.0000000   0.2727273   0.2500000), wk =   0.0055096
        k(   26) = (   0.0000000   0.2727273   0.3333333), wk =   0.0055096
        k(   27) = (   0.0000000   0.2727273   0.4166667), wk =   0.0055096
        k(   28) = (   0.0000000   0.2727273  -0.5000000), wk =   0.0027548
        k(   29) = (   0.0000000   0.3636364   0.0000000), wk =   0.0027548
        k(   30) = (   0.0000000   0.3636364   0.0833333), wk =   0.0055096
        k(   31) = (   0.0000000   0.3636364   0.1666667), wk =   0.0055096
        k(   32) = (   0.0000000   0.3636364   0.2500000), wk =   0.0055096
        k(   33) = (   0.0000000   0.3636364   0.3333333), wk =   0.0055096
        k(   34) = (   0.0000000   0.3636364   0.4166667), wk =   0.0055096
        k(   35) = (   0.0000000   0.3636364  -0.5000000), wk =   0.0027548
        k(   36) = (   0.0000000   0.4545455   0.0000000), wk =   0.0027548
        k(   37) = (   0.0000000   0.4545455   0.0833333), wk =   0.0055096
        k(   38) = (   0.0000000   0.4545455   0.1666667), wk =   0.0055096
        k(   39) = (   0.0000000   0.4545455   0.2500000), wk =   0.0055096
        k(   40) = (   0.0000000   0.4545455   0.3333333), wk =   0.0055096
        k(   41) = (   0.0000000   0.4545455   0.4166667), wk =   0.0055096
        k(   42) = (   0.0000000   0.4545455  -0.5000000), wk =   0.0027548
        k(   43) = (   0.0909091   0.0909091   0.0000000), wk =   0.0027548
        k(   44) = (   0.0909091   0.0909091   0.0833333), wk =   0.0055096
        k(   45) = (   0.0909091   0.0909091   0.1666667), wk =   0.0055096
        k(   46) = (   0.0909091   0.0909091   0.2500000), wk =   0.0055096
        k(   47) = (   0.0909091   0.0909091   0.3333333), wk =   0.0055096
        k(   48) = (   0.0909091   0.0909091   0.4166667), wk =   0.0055096
        k(   49) = (   0.0909091   0.0909091  -0.5000000), wk =   0.0027548
        k(   50) = (   0.0909091   0.1818182   0.0000000), wk =   0.0055096
        k(   51) = (   0.0909091   0.1818182   0.0833333), wk =   0.0110193
        k(   52) = (   0.0909091   0.1818182   0.1666667), wk =   0.0110193
        k(   53) = (   0.0909091   0.1818182   0.2500000), wk =   0.0110193
        k(   54) = (   0.0909091   0.1818182   0.3333333), wk =   0.0110193
        k(   55) = (   0.0909091   0.1818182   0.4166667), wk =   0.0110193
        k(   56) = (   0.0909091   0.1818182  -0.5000000), wk =   0.0055096
        k(   57) = (   0.0909091   0.2727273   0.0000000), wk =   0.0055096
        k(   58) = (   0.0909091   0.2727273   0.0833333), wk =   0.0110193
        k(   59) = (   0.0909091   0.2727273   0.1666667), wk =   0.0110193
        k(   60) = (   0.0909091   0.2727273   0.2500000), wk =   0.0110193
        k(   61) = (   0.0909091   0.2727273   0.3333333), wk =   0.0110193
        k(   62) = (   0.0909091   0.2727273   0.4166667), wk =   0.0110193
        k(   63) = (   0.0909091   0.2727273  -0.5000000), wk =   0.0055096
        k(   64) = (   0.0909091   0.3636364   0.0000000), wk =   0.0055096
        k(   65) = (   0.0909091   0.3636364   0.0833333), wk =   0.0110193
        k(   66) = (   0.0909091   0.3636364   0.1666667), wk =   0.0110193
        k(   67) = (   0.0909091   0.3636364   0.2500000), wk =   0.0110193
        k(   68) = (   0.0909091   0.3636364   0.3333333), wk =   0.0110193
        k(   69) = (   0.0909091   0.3636364   0.4166667), wk =   0.0110193
        k(   70) = (   0.0909091   0.3636364  -0.5000000), wk =   0.0055096
        k(   71) = (   0.0909091   0.4545455   0.0000000), wk =   0.0055096
        k(   72) = (   0.0909091   0.4545455   0.0833333), wk =   0.0110193
        k(   73) = (   0.0909091   0.4545455   0.1666667), wk =   0.0110193
        k(   74) = (   0.0909091   0.4545455   0.2500000), wk =   0.0110193
        k(   75) = (   0.0909091   0.4545455   0.3333333), wk =   0.0110193
        k(   76) = (   0.0909091   0.4545455   0.4166667), wk =   0.0110193
        k(   77) = (   0.0909091   0.4545455  -0.5000000), wk =   0.0055096
        k(   78) = (   0.1818182   0.1818182   0.0000000), wk =   0.0027548
        k(   79) = (   0.1818182   0.1818182   0.0833333), wk =   0.0055096
        k(   80) = (   0.1818182   0.1818182   0.1666667), wk =   0.0055096
        k(   81) = (   0.1818182   0.1818182   0.2500000), wk =   0.0055096
        k(   82) = (   0.1818182   0.1818182   0.3333333), wk =   0.0055096
        k(   83) = (   0.1818182   0.1818182   0.4166667), wk =   0.0055096
        k(   84) = (   0.1818182   0.1818182  -0.5000000), wk =   0.0027548
        k(   85) = (   0.1818182   0.2727273   0.0000000), wk =   0.0055096
        k(   86) = (   0.1818182   0.2727273   0.0833333), wk =   0.0110193
        k(   87) = (   0.1818182   0.2727273   0.1666667), wk =   0.0110193
        k(   88) = (   0.1818182   0.2727273   0.2500000), wk =   0.0110193
        k(   89) = (   0.1818182   0.2727273   0.3333333), wk =   0.0110193
        k(   90) = (   0.1818182   0.2727273   0.4166667), wk =   0.0110193
        k(   91) = (   0.1818182   0.2727273  -0.5000000), wk =   0.0055096
        k(   92) = (   0.1818182   0.3636364   0.0000000), wk =   0.0055096
        k(   93) = (   0.1818182   0.3636364   0.0833333), wk =   0.0110193
        k(   94) = (   0.1818182   0.3636364   0.1666667), wk =   0.0110193
        k(   95) = (   0.1818182   0.3636364   0.2500000), wk =   0.0110193
        k(   96) = (   0.1818182   0.3636364   0.3333333), wk =   0.0110193
        k(   97) = (   0.1818182   0.3636364   0.4166667), wk =   0.0110193
        k(   98) = (   0.1818182   0.3636364  -0.5000000), wk =   0.0055096
        k(   99) = (   0.1818182   0.4545455   0.0000000), wk =   0.0055096
        k(  100) = (   0.1818182   0.4545455   0.0833333), wk =   0.0110193
        k(  101) = (   0.1818182   0.4545455   0.1666667), wk =   0.0110193
        k(  102) = (   0.1818182   0.4545455   0.2500000), wk =   0.0110193
        k(  103) = (   0.1818182   0.4545455   0.3333333), wk =   0.0110193
        k(  104) = (   0.1818182   0.4545455   0.4166667), wk =   0.0110193
        k(  105) = (   0.1818182   0.4545455  -0.5000000), wk =   0.0055096
        k(  106) = (   0.2727273   0.2727273   0.0000000), wk =   0.0027548
        k(  107) = (   0.2727273   0.2727273   0.0833333), wk =   0.0055096
        k(  108) = (   0.2727273   0.2727273   0.1666667), wk =   0.0055096
        k(  109) = (   0.2727273   0.2727273   0.2500000), wk =   0.0055096
        k(  110) = (   0.2727273   0.2727273   0.3333333), wk =   0.0055096
        k(  111) = (   0.2727273   0.2727273   0.4166667), wk =   0.0055096
        k(  112) = (   0.2727273   0.2727273  -0.5000000), wk =   0.0027548
        k(  113) = (   0.2727273   0.3636364   0.0000000), wk =   0.0055096
        k(  114) = (   0.2727273   0.3636364   0.0833333), wk =   0.0110193
        k(  115) = (   0.2727273   0.3636364   0.1666667), wk =   0.0110193
        k(  116) = (   0.2727273   0.3636364   0.2500000), wk =   0.0110193
        k(  117) = (   0.2727273   0.3636364   0.3333333), wk =   0.0110193
        k(  118) = (   0.2727273   0.3636364   0.4166667), wk =   0.0110193
        k(  119) = (   0.2727273   0.3636364  -0.5000000), wk =   0.0055096
        k(  120) = (   0.2727273   0.4545455   0.0000000), wk =   0.0055096
        k(  121) = (   0.2727273   0.4545455   0.0833333), wk =   0.0110193
        k(  122) = (   0.2727273   0.4545455   0.1666667), wk =   0.0110193
        k(  123) = (   0.2727273   0.4545455   0.2500000), wk =   0.0110193
        k(  124) = (   0.2727273   0.4545455   0.3333333), wk =   0.0110193
        k(  125) = (   0.2727273   0.4545455   0.4166667), wk =   0.0110193
        k(  126) = (   0.2727273   0.4545455  -0.5000000), wk =   0.0055096
        k(  127) = (   0.3636364   0.3636364   0.0000000), wk =   0.0027548
        k(  128) = (   0.3636364   0.3636364   0.0833333), wk =   0.0055096
        k(  129) = (   0.3636364   0.3636364   0.1666667), wk =   0.0055096
        k(  130) = (   0.3636364   0.3636364   0.2500000), wk =   0.0055096
        k(  131) = (   0.3636364   0.3636364   0.3333333), wk =   0.0055096
        k(  132) = (   0.3636364   0.3636364   0.4166667), wk =   0.0055096
        k(  133) = (   0.3636364   0.3636364  -0.5000000), wk =   0.0027548
        k(  134) = (   0.3636364   0.4545455   0.0000000), wk =   0.0055096
        k(  135) = (   0.3636364   0.4545455   0.0833333), wk =   0.0110193
        k(  136) = (   0.3636364   0.4545455   0.1666667), wk =   0.0110193
        k(  137) = (   0.3636364   0.4545455   0.2500000), wk =   0.0110193
        k(  138) = (   0.3636364   0.4545455   0.3333333), wk =   0.0110193
        k(  139) = (   0.3636364   0.4545455   0.4166667), wk =   0.0110193
        k(  140) = (   0.3636364   0.4545455  -0.5000000), wk =   0.0055096
        k(  141) = (   0.4545455   0.4545455   0.0000000), wk =   0.0027548
        k(  142) = (   0.4545455   0.4545455   0.0833333), wk =   0.0055096
        k(  143) = (   0.4545455   0.4545455   0.1666667), wk =   0.0055096
        k(  144) = (   0.4545455   0.4545455   0.2500000), wk =   0.0055096
        k(  145) = (   0.4545455   0.4545455   0.3333333), wk =   0.0055096
        k(  146) = (   0.4545455   0.4545455   0.4166667), wk =   0.0055096
        k(  147) = (   0.4545455   0.4545455  -0.5000000), wk =   0.0027548

     Dense  grid:   222881 G-vectors     FFT dimensions: (  80,  80,  75)

     Smooth grid:    42923 G-vectors     FFT dimensions: (  45,  45,  45)

     Dynamical RAM for                 wfc:       1.64 MB

     Dynamical RAM for     wfc (w. buffer):     482.99 MB

     Dynamical RAM for           str. fact:       6.80 MB

     Dynamical RAM for           local pot:       0.00 MB

     Dynamical RAM for          nlocal pot:       2.95 MB

     Dynamical RAM for                qrad:       5.27 MB

     Dynamical RAM for          rho,v,vnew:      42.38 MB

     Dynamical RAM for               rhoin:      14.13 MB

     Dynamical RAM for            rho*nmix:     108.83 MB

     Dynamical RAM for           G-vectors:      13.08 MB

     Dynamical RAM for          h,s,v(r/c):       0.07 MB

     Dynamical RAM for          <psi|beta>:       0.01 MB

     Dynamical RAM for                 psi:       3.27 MB

     Dynamical RAM for                hpsi:       3.27 MB

     Dynamical RAM for                spsi:       3.27 MB

     Dynamical RAM for      wfcinit/wfcrot:       4.11 MB

     Dynamical RAM for           addusdens:     639.37 MB

     Dynamical RAM for          addusforce:     639.38 MB

     Dynamical RAM for         addusstress:     688.68 MB

     Estimated static dynamical RAM per process >     599.77 MB

     Estimated max dynamical RAM per process >       1.36 GB

     Check: negative core charge=   -0.000003
     Generating pointlists ...
     new r_m :   0.3533 (alat units)  2.5701 (a.u.) for type    1
     new r_m :   0.3533 (alat units)  2.5701 (a.u.) for type    2

     Initial potential from superposition of free atoms

     starting charge   31.49958, renormalised to   32.00000

     negative rho (up, down):  1.219E-01 6.384E-02
     Starting wfcs are   25 randomized atomic wfcs
     Checking if some PAW data can be deallocated... 

     total cpu time spent up to now is        3.1 secs

     Self-consistent Calculation
[tb_dev] Currently allocated     2.38E+01 Mbytes, locked:    0 /  10
[tb_pin] Currently allocated     0.00E+00 Mbytes, locked:    0 /   0

     iteration #  1     ecut=    90.00 Ry     beta= 0.40
     Davidson diagonalization with overlap

---- Real-time Memory Report at c_bands before calling an iterative solver
          2254 MiB given to the printing process from OS
             0 MiB allocation reported by mallinfo(arena+hblkhd)
          5012 MiB available memory on the node where the printing process lives
     GPU memory used/free/total (MiB): 1214 / 22888 / 24102
------------------
     ethr =  1.00E-02,  avg # of iterations =  2.0

     negative rho (up, down):  1.074E-01 6.795E-02

     total cpu time spent up to now is        6.7 secs

     total energy              =    -536.54951340 Ry
     estimated scf accuracy    <       1.63232686 Ry

     total magnetization       =     5.81 Bohr mag/cell
     absolute magnetization    =     5.96 Bohr mag/cell
[tb_dev] Currently allocated     1.23E+03 Mbytes, locked:    0 /  15
[tb_pin] Currently allocated     6.83E+00 Mbytes, locked:    0 /   2

     iteration #  2     ecut=    90.00 Ry     beta= 0.40
     Davidson diagonalization with overlap

---- Real-time Memory Report at c_bands before calling an iterative solver
          2392 MiB given to the printing process from OS
             0 MiB allocation reported by mallinfo(arena+hblkhd)
          4886 MiB available memory on the node where the printing process lives
     GPU memory used/free/total (MiB): 2518 / 21584 / 24102
------------------
     ethr =  5.10E-03,  avg # of iterations =  2.1

     negative rho (up, down):  1.045E-01 7.230E-02

     total cpu time spent up to now is       10.4 secs

     total energy              =    -536.77688051 Ry
     estimated scf accuracy    <       1.67083761 Ry

     total magnetization       =     4.96 Bohr mag/cell
     absolute magnetization    =     5.01 Bohr mag/cell
[tb_dev] Currently allocated     1.23E+03 Mbytes, locked:    0 /  15
[tb_pin] Currently allocated     6.83E+00 Mbytes, locked:    0 /   2

     iteration #  3     ecut=    90.00 Ry     beta= 0.40
     Davidson diagonalization with overlap

---- Real-time Memory Report at c_bands before calling an iterative solver
          2396 MiB given to the printing process from OS
             0 MiB allocation reported by mallinfo(arena+hblkhd)
          4801 MiB available memory on the node where the printing process lives
     GPU memory used/free/total (MiB): 2494 / 21608 / 24102
------------------
     ethr =  5.10E-03,  avg # of iterations =  1.9

     negative rho (up, down):  1.024E-01 7.377E-02

     total cpu time spent up to now is       13.9 secs

     total energy              =    -536.49813955 Ry
     estimated scf accuracy    <      10.05235601 Ry

     total magnetization       =     3.86 Bohr mag/cell
     absolute magnetization    =     4.13 Bohr mag/cell
[tb_dev] Currently allocated     1.23E+03 Mbytes, locked:    0 /  15
[tb_pin] Currently allocated     6.83E+00 Mbytes, locked:    0 /   2

     iteration #  4     ecut=    90.00 Ry     beta= 0.40
     Davidson diagonalization with overlap

---- Real-time Memory Report at c_bands before calling an iterative solver
          2402 MiB given to the printing process from OS
             0 MiB allocation reported by mallinfo(arena+hblkhd)
          4779 MiB available memory on the node where the printing process lives
     GPU memory used/free/total (MiB): 2474 / 21628 / 24102
------------------
     ethr =  5.10E-03,  avg # of iterations =  1.4

     negative rho (up, down):  8.960E-02 8.512E-02

     total cpu time spent up to now is       17.1 secs

     total energy              =    -537.05044264 Ry
     estimated scf accuracy    <       0.56287378 Ry

     total magnetization       =     4.76 Bohr mag/cell
     absolute magnetization    =     4.88 Bohr mag/cell
[tb_dev] Currently allocated     1.23E+03 Mbytes, locked:    0 /  15
[tb_pin] Currently allocated     6.83E+00 Mbytes, locked:    0 /   2

     iteration #  5     ecut=    90.00 Ry     beta= 0.40
     Davidson diagonalization with overlap

---- Real-time Memory Report at c_bands before calling an iterative solver
          2402 MiB given to the printing process from OS
             0 MiB allocation reported by mallinfo(arena+hblkhd)
          4816 MiB available memory on the node where the printing process lives
     GPU memory used/free/total (MiB): 2474 / 21628 / 24102
------------------
     ethr =  1.76E-03,  avg # of iterations =  1.5

     negative rho (up, down):  8.878E-02 8.543E-02

     total cpu time spent up to now is       20.1 secs

     total energy              =    -537.08970298 Ry
     estimated scf accuracy    <       0.97498738 Ry

     total magnetization       =     3.74 Bohr mag/cell
     absolute magnetization    =     3.94 Bohr mag/cell
[tb_dev] Currently allocated     1.23E+03 Mbytes, locked:    0 /  15
[tb_pin] Currently allocated     6.83E+00 Mbytes, locked:    0 /   2

     iteration #  6     ecut=    90.00 Ry     beta= 0.40
     Davidson diagonalization with overlap

---- Real-time Memory Report at c_bands before calling an iterative solver
          2407 MiB given to the printing process from OS
             0 MiB allocation reported by mallinfo(arena+hblkhd)
          4821 MiB available memory on the node where the printing process lives
     GPU memory used/free/total (MiB): 2474 / 21628 / 24102
------------------
     ethr =  1.76E-03,  avg # of iterations =  1.0

     negative rho (up, down):  8.911E-02 8.598E-02

     total cpu time spent up to now is       22.7 secs

     total energy              =    -537.13109309 Ry
     estimated scf accuracy    <       0.00227929 Ry

     total magnetization       =     3.98 Bohr mag/cell
     absolute magnetization    =     4.15 Bohr mag/cell
[tb_dev] Currently allocated     1.23E+03 Mbytes, locked:    0 /  15
[tb_pin] Currently allocated     6.83E+00 Mbytes, locked:    0 /   2

     iteration #  7     ecut=    90.00 Ry     beta= 0.40
     Davidson diagonalization with overlap

---- Real-time Memory Report at c_bands before calling an iterative solver
          2412 MiB given to the printing process from OS
             0 MiB allocation reported by mallinfo(arena+hblkhd)
          4825 MiB available memory on the node where the printing process lives
     GPU memory used/free/total (MiB): 2474 / 21628 / 24102
------------------
     ethr =  7.12E-06,  avg # of iterations =  4.1

     negative rho (up, down):  8.913E-02 8.651E-02

     total cpu time spent up to now is       28.9 secs

     total energy              =    -537.13231411 Ry
     estimated scf accuracy    <       0.00070939 Ry

     total magnetization       =     3.93 Bohr mag/cell
     absolute magnetization    =     4.08 Bohr mag/cell
[tb_dev] Currently allocated     1.23E+03 Mbytes, locked:    0 /  15
[tb_pin] Currently allocated     6.83E+00 Mbytes, locked:    0 /   2

     iteration #  8     ecut=    90.00 Ry     beta= 0.40
     Davidson diagonalization with overlap

---- Real-time Memory Report at c_bands before calling an iterative solver
          2413 MiB given to the printing process from OS
             0 MiB allocation reported by mallinfo(arena+hblkhd)
          4882 MiB available memory on the node where the printing process lives
     GPU memory used/free/total (MiB): 2480 / 21622 / 24102
------------------
     ethr =  2.22E-06,  avg # of iterations =  2.5

     negative rho (up, down):  8.881E-02 8.648E-02

     total cpu time spent up to now is       33.2 secs

     total energy              =    -537.13199414 Ry
     estimated scf accuracy    <       0.00247751 Ry

     total magnetization       =     3.87 Bohr mag/cell
     absolute magnetization    =     4.02 Bohr mag/cell
[tb_dev] Currently allocated     1.23E+03 Mbytes, locked:    0 /  15
[tb_pin] Currently allocated     6.83E+00 Mbytes, locked:    0 /   2

     iteration #  9     ecut=    90.00 Ry     beta= 0.40
     Davidson diagonalization with overlap

---- Real-time Memory Report at c_bands before calling an iterative solver
          2416 MiB given to the printing process from OS
             0 MiB allocation reported by mallinfo(arena+hblkhd)
          4878 MiB available memory on the node where the printing process lives
     GPU memory used/free/total (MiB): 2464 / 21638 / 24102
------------------
     ethr =  2.22E-06,  avg # of iterations =  2.8

     negative rho (up, down):  8.898E-02 8.636E-02

     total cpu time spent up to now is       38.1 secs

     total energy              =    -537.13252601 Ry
     estimated scf accuracy    <       0.01455191 Ry

     total magnetization       =     3.92 Bohr mag/cell
     absolute magnetization    =     4.07 Bohr mag/cell
[tb_dev] Currently allocated     1.23E+03 Mbytes, locked:    0 /  15
[tb_pin] Currently allocated     6.83E+00 Mbytes, locked:    0 /   2

     iteration # 10     ecut=    90.00 Ry     beta= 0.40
     Davidson diagonalization with overlap

---- Real-time Memory Report at c_bands before calling an iterative solver
          2421 MiB given to the printing process from OS
             0 MiB allocation reported by mallinfo(arena+hblkhd)
          4882 MiB available memory on the node where the printing process lives
     GPU memory used/free/total (MiB): 2518 / 21584 / 24102
------------------
     ethr =  2.22E-06,  avg # of iterations =  2.1

     negative rho (up, down):  8.901E-02 8.640E-02

     total cpu time spent up to now is       41.7 secs

     total energy              =    -537.13289799 Ry
     estimated scf accuracy    <       0.00132799 Ry

     total magnetization       =     3.90 Bohr mag/cell
     absolute magnetization    =     4.04 Bohr mag/cell
[tb_dev] Currently allocated     1.23E+03 Mbytes, locked:    0 /  15
[tb_pin] Currently allocated     6.83E+00 Mbytes, locked:    0 /   2

     iteration # 11     ecut=    90.00 Ry     beta= 0.40
     Davidson diagonalization with overlap

---- Real-time Memory Report at c_bands before calling an iterative solver
          2421 MiB given to the printing process from OS
             0 MiB allocation reported by mallinfo(arena+hblkhd)
          4924 MiB available memory on the node where the printing process lives
     GPU memory used/free/total (MiB): 2492 / 21610 / 24102
------------------
     ethr =  2.22E-06,  avg # of iterations =  1.2

     negative rho (up, down):  8.891E-02 8.645E-02

     total cpu time spent up to now is       44.8 secs

     total energy              =    -537.13295468 Ry
     estimated scf accuracy    <       0.00003207 Ry

     total magnetization       =     3.88 Bohr mag/cell
     absolute magnetization    =     4.02 Bohr mag/cell
[tb_dev] Currently allocated     1.23E+03 Mbytes, locked:    0 /  15
[tb_pin] Currently allocated     6.83E+00 Mbytes, locked:    0 /   2

     iteration # 12     ecut=    90.00 Ry     beta= 0.40
     Davidson diagonalization with overlap

---- Real-time Memory Report at c_bands before calling an iterative solver
          2421 MiB given to the printing process from OS
             0 MiB allocation reported by mallinfo(arena+hblkhd)
          4865 MiB available memory on the node where the printing process lives
     GPU memory used/free/total (MiB): 2480 / 21622 / 24102
------------------
     ethr =  1.00E-07,  avg # of iterations =  2.8

     negative rho (up, down):  8.895E-02 8.648E-02

     total cpu time spent up to now is       49.6 secs

     total energy              =    -537.13297493 Ry
     estimated scf accuracy    <       0.00004105 Ry

     total magnetization       =     3.87 Bohr mag/cell
     absolute magnetization    =     4.01 Bohr mag/cell
[tb_dev] Currently allocated     1.23E+03 Mbytes, locked:    0 /  15
[tb_pin] Currently allocated     6.83E+00 Mbytes, locked:    0 /   2

     iteration # 13     ecut=    90.00 Ry     beta= 0.40
     Davidson diagonalization with overlap

---- Real-time Memory Report at c_bands before calling an iterative solver
          2421 MiB given to the printing process from OS
             0 MiB allocation reported by mallinfo(arena+hblkhd)
          4872 MiB available memory on the node where the printing process lives
     GPU memory used/free/total (MiB): 2494 / 21608 / 24102
------------------
     ethr =  1.00E-07,  avg # of iterations =  2.1

     negative rho (up, down):  8.896E-02 8.647E-02

     total cpu time spent up to now is       53.1 secs

     total energy              =    -537.13298462 Ry
     estimated scf accuracy    <       0.00002547 Ry

     total magnetization       =     3.87 Bohr mag/cell
     absolute magnetization    =     4.01 Bohr mag/cell
[tb_dev] Currently allocated     1.23E+03 Mbytes, locked:    0 /  15
[tb_pin] Currently allocated     6.83E+00 Mbytes, locked:    0 /   2

     iteration # 14     ecut=    90.00 Ry     beta= 0.40
     Davidson diagonalization with overlap

---- Real-time Memory Report at c_bands before calling an iterative solver
          2421 MiB given to the printing process from OS
             0 MiB allocation reported by mallinfo(arena+hblkhd)
          4918 MiB available memory on the node where the printing process lives
     GPU memory used/free/total (MiB): 2482 / 21620 / 24102
------------------
     ethr =  7.96E-08,  avg # of iterations =  1.0

     negative rho (up, down):  8.895E-02 8.647E-02

     total cpu time spent up to now is       55.8 secs

     total energy              =    -537.13298681 Ry
     estimated scf accuracy    <       0.00000024 Ry

     total magnetization       =     3.87 Bohr mag/cell
     absolute magnetization    =     4.01 Bohr mag/cell
[tb_dev] Currently allocated     1.23E+03 Mbytes, locked:    0 /  15
[tb_pin] Currently allocated     6.83E+00 Mbytes, locked:    0 /   2

     iteration # 15     ecut=    90.00 Ry     beta= 0.40
     Davidson diagonalization with overlap

---- Real-time Memory Report at c_bands before calling an iterative solver
          2422 MiB given to the printing process from OS
             0 MiB allocation reported by mallinfo(arena+hblkhd)
          4863 MiB available memory on the node where the printing process lives
     GPU memory used/free/total (MiB): 2482 / 21620 / 24102
------------------
     ethr =  7.64E-10,  avg # of iterations =  5.2

     negative rho (up, down):  8.896E-02 8.647E-02

     total cpu time spent up to now is       62.8 secs

     total energy              =    -537.13298799 Ry
     estimated scf accuracy    <       0.00000043 Ry

     total magnetization       =     3.87 Bohr mag/cell
     absolute magnetization    =     4.01 Bohr mag/cell
[tb_dev] Currently allocated     1.23E+03 Mbytes, locked:    0 /  15
[tb_pin] Currently allocated     6.83E+00 Mbytes, locked:    0 /   2

     iteration # 16     ecut=    90.00 Ry     beta= 0.40
     Davidson diagonalization with overlap

---- Real-time Memory Report at c_bands before calling an iterative solver
          2422 MiB given to the printing process from OS
             0 MiB allocation reported by mallinfo(arena+hblkhd)
          4910 MiB available memory on the node where the printing process lives
     GPU memory used/free/total (MiB): 2484 / 21618 / 24102
------------------
     ethr =  7.64E-10,  avg # of iterations =  2.0

     negative rho (up, down):  8.895E-02 8.647E-02

     total cpu time spent up to now is       66.4 secs

     total energy              =    -537.13298820 Ry
     estimated scf accuracy    <       0.00000007 Ry

     total magnetization       =     3.87 Bohr mag/cell
     absolute magnetization    =     4.01 Bohr mag/cell
[tb_dev] Currently allocated     1.23E+03 Mbytes, locked:    0 /  15
[tb_pin] Currently allocated     6.83E+00 Mbytes, locked:    0 /   2

     iteration # 17     ecut=    90.00 Ry     beta= 0.40
     Davidson diagonalization with overlap

---- Real-time Memory Report at c_bands before calling an iterative solver
          2422 MiB given to the printing process from OS
             0 MiB allocation reported by mallinfo(arena+hblkhd)
          4904 MiB available memory on the node where the printing process lives
     GPU memory used/free/total (MiB): 2510 / 21592 / 24102
------------------
     ethr =  2.09E-10,  avg # of iterations =  1.6

     negative rho (up, down):  8.895E-02 8.647E-02

     total cpu time spent up to now is       69.7 secs

     total energy              =    -537.13298826 Ry
     estimated scf accuracy    <          4.1E-09 Ry

     total magnetization       =     3.87 Bohr mag/cell
     absolute magnetization    =     4.01 Bohr mag/cell
[tb_dev] Currently allocated     1.23E+03 Mbytes, locked:    0 /  15
[tb_pin] Currently allocated     6.83E+00 Mbytes, locked:    0 /   2

     iteration # 18     ecut=    90.00 Ry     beta= 0.40
     Davidson diagonalization with overlap

---- Real-time Memory Report at c_bands before calling an iterative solver
          2422 MiB given to the printing process from OS
             0 MiB allocation reported by mallinfo(arena+hblkhd)
          4924 MiB available memory on the node where the printing process lives
     GPU memory used/free/total (MiB): 2490 / 21612 / 24102
------------------
     ethr =  1.29E-11,  avg # of iterations =  3.4

     negative rho (up, down):  8.895E-02 8.647E-02

     total cpu time spent up to now is       75.0 secs

     total energy              =    -537.13298828 Ry
     estimated scf accuracy    <          1.7E-09 Ry

     total magnetization       =     3.87 Bohr mag/cell
     absolute magnetization    =     4.01 Bohr mag/cell
[tb_dev] Currently allocated     1.23E+03 Mbytes, locked:    0 /  15
[tb_pin] Currently allocated     6.83E+00 Mbytes, locked:    0 /   2

     iteration # 19     ecut=    90.00 Ry     beta= 0.40
     Davidson diagonalization with overlap

---- Real-time Memory Report at c_bands before calling an iterative solver
          2422 MiB given to the printing process from OS
             0 MiB allocation reported by mallinfo(arena+hblkhd)
          4899 MiB available memory on the node where the printing process lives
     GPU memory used/free/total (MiB): 2474 / 21628 / 24102
------------------
     ethr =  5.32E-12,  avg # of iterations =  1.7

     negative rho (up, down):  8.895E-02 8.647E-02
 
     Magnetic moment per site  (integrated on atomic sphere of radius R)
     atom   1 (R=0.353)  charge= 14.8395  magn=  3.6208
     atom   2 (R=0.353)  charge= 14.8744  magn=  0.2879

     total cpu time spent up to now is       78.4 secs

     End of self-consistent calculation

 ------ SPIN UP ------------


          k = 0.0000 0.0000 0.0000 (  5377 PWs)   bands (ev):

   -81.9368 -48.1009 -48.1009 -48.0983 -43.8048 -43.7913 -43.7913   2.0862
     3.7683   3.7696   4.4241   4.4517   4.4517   5.8063   5.8885   6.5902
     6.6152   6.6152  12.5597  12.5597

     occupation numbers 
     1.0000   1.0000   1.0000   1.0000   1.0000   1.0000   1.0000   1.0000
     1.0000   1.0000   1.0000   1.0000   1.0000   1.0000   1.0000   1.0001
     1.0002   1.0002   0.0000   0.0000

          k = 0.0000 0.0000 0.0862 (  5369 PWs)   bands (ev):

   -81.9368 -48.1008 -48.1008 -48.0984 -43.8052 -43.7913 -43.7913   2.1707
     3.7810   3.7879   4.4310   4.4479   4.4479   5.8308   5.8822   6.5693
     6.5693   6.5836  12.1286  12.7019

     occupation numbers 
     1.0000   1.0000   1.0000   1.0000   1.0000   1.0000   1.0000   1.0000
     1.0000   1.0000   1.0000   1.0000   1.0000   1.0000   1.0000   1.0001
     1.0001   1.0001   0.0000   0.0000

          k = 0.0000 0.0000 0.1725 (  5357 PWs)   bands (ev):

   -81.9367 -48.1008 -48.1008 -48.0986 -43.8062 -43.7912 -43.7912   2.4208
     3.8125   3.8418   4.4375   4.4375   4.4501   5.8645   5.8971   6.4494
     6.4494   6.5653  10.7793  13.1104

     occupation numbers 
     1.0000   1.0000   1.0000   1.0000   1.0000   1.0000   1.0000   1.0000
     1.0000   1.0000   1.0000   1.0000   1.0000   1.0000   1.0000   1.0000
     1.0000   1.0001   0.0000   0.0000

          k = 0.0000 0.0000 0.2587 (  5353 PWs)   bands (ev):

   -81.9367 -48.1008 -48.1008 -48.0990 -43.8077 -43.7911 -43.7911   2.8235
     3.8568   3.9172   4.4238   4.4238   4.4768   5.8391   5.9786   6.2974
     6.2974   6.5397   9.4693  13.7431

     occupation numbers 
     1.0000   1.0000   1.0000   1.0000   1.0000   1.0000   1.0000   1.0000
     1.0000   1.0000   1.0000   1.0000   1.0000   1.0000   1.0000   1.0000
     1.0000   1.0000   0.0000   0.0000

          k = 0.0000 0.0000 0.3450 (  5373 PWs)   bands (ev):

   -81.9367 -48.1008 -48.1008 -48.0994 -43.8091 -43.7910 -43.7910   3.3429
     3.9027   4.0043   4.4108   4.4108   4.5043   5.8122   6.0135   6.1562
     6.1562   6.5134   8.3293  14.5562

     occupation numbers 
     1.0000   1.0000   1.0000   1.0000   1.0000   1.0000   1.0000   1.0000
     1.0000   1.0000   1.0000   1.0000   1.0000   1.0000   1.0000   1.0000
     1.0000   1.0000   0.0000   0.0000

          k = 0.0000 0.0000 0.4312 (  5358 PWs)   bands (ev):

   -81.9367 -48.1007 -48.1007 -48.0996 -43.8102 -43.7909 -43.7909   3.8232
     3.9374   4.1651   4.4017   4.4017   4.5248   5.7914   5.8844   6.0585
     6.0585   6.4936   7.5430  15.5140

     occupation numbers 
     1.0000   1.0000   1.0000   1.0000   1.0000   1.0000   1.0000   1.0000
     1.0000   1.0000   1.0000   1.0000   1.0000   1.0000   1.0000   1.0000
     1.0000   1.0000   0.4240   0.0000

          k = 0.0000 0.0000-0.5175 (  5334 PWs)   bands (ev):

   -81.9367 -48.1007 -48.1007 -48.0997 -43.8105 -43.7909 -43.7909   3.9433
     3.9504   4.3984   4.3984   4.4058   4.5325   5.6935   5.7835   6.0239
     6.0239   6.4863   7.2869  16.1616

     occupation numbers 
     1.0000   1.0000   1.0000   1.0000   1.0000   1.0000   1.0000   1.0000
     1.0000   1.0000   1.0000   1.0000   1.0000   1.0000   1.0000   1.0000
     1.0000   1.0000   1.0189   0.0000

          k = 0.0000 0.0909 0.0000 (  5372 PWs)   bands (ev):

   -81.9368 -48.1009 -48.1008 -48.0983 -43.8048 -43.7916 -43.7913   2.1797
     3.7806   3.7892   4.4228   4.4499   4.4583   5.8027   5.9009   6.5406
     6.5730   6.6084  11.4770  12.7189

     occupation numbers 
     1.0000   1.0000   1.0000   1.0000   1.0000   1.0000   1.0000   1.0000
     1.0000   1.0000   1.0000   1.0000   1.0000   1.0000   1.0000   1.0000
     1.0001   1.0001   0.0000   0.0000

          k = 0.0000 0.0909 0.0862 (  5363 PWs)   bands (ev):

   -81.9367 -48.1009 -48.1008 -48.0984 -43.8052 -43.7915 -43.7912   2.2634
     3.7963   3.8037   4.4204   4.4457   4.4613   5.8283   5.8967   6.5102
     6.5246   6.5930  11.5049  12.5578

     occupation numbers 
     1.0000   1.0000   1.0000   1.0000   1.0000   1.0000   1.0000   1.0000
     1.0000   1.0000   1.0000   1.0000   1.0000   1.0000   1.0000   1.0000
     1.0000   1.0001   0.0000   0.0000

          k = 0.0000 0.0909 0.1725 (  5367 PWs)   bands (ev):

   -81.9367 -48.1009 -48.1008 -48.0986 -43.8062 -43.7915 -43.7912   2.5104
     3.8270   3.8558   4.4129   4.4351   4.4705   5.8760   5.9058   6.4003
     6.4158   6.5670  10.8435  12.1983

     occupation numbers 
     1.0000   1.0000   1.0000   1.0000   1.0000   1.0000   1.0000   1.0000
     1.0000   1.0000   1.0000   1.0000   1.0000   1.0000   1.0000   1.0000
     1.0000   1.0001   0.0000   0.0000

          k = 0.0000 0.0909 0.2587 (  5352 PWs)   bands (ev):

   -81.9367 -48.1009 -48.1008 -48.0990 -43.8077 -43.7914 -43.7911   2.9055
     3.8683   3.9304   4.4026   4.4237   4.4831   5.8607   5.9807   6.2562
     6.2890   6.5397   9.5917  12.6453

     occupation numbers 
     1.0000   1.0000   1.0000   1.0000   1.0000   1.0000   1.0000   1.0000
     1.0000   1.0000   1.0000   1.0000   1.0000   1.0000   1.0000   1.0000
     1.0000   1.0000   0.0000   0.0000

          k = 0.0000 0.0909 0.3450 (  5353 PWs)   bands (ev):

   -81.9367 -48.1008 -48.1008 -48.0994 -43.8091 -43.7913 -43.7910   3.4056
     3.9112   4.0144   4.3929   4.4257   4.4946   5.8395   5.9380   6.1714
     6.2138   6.5133   8.4430  13.2887

     occupation numbers 
     1.0000   1.0000   1.0000   1.0000   1.0000   1.0000   1.0000   1.0000
     1.0000   1.0000   1.0000   1.0000   1.0000   1.0000   1.0000   1.0000
     1.0000   1.0000   0.0000   0.0000

          k = 0.0000 0.0909 0.4312 (  5342 PWs)   bands (ev):

   -81.9367 -48.1008 -48.1007 -48.0996 -43.8101 -43.7912 -43.7909   3.8407
     3.9472   4.1271   4.3866   4.5019   4.5032   5.7239   5.8325   6.0912
     6.2480   6.4937   7.6027  14.0575

     occupation numbers 
     1.0000   1.0000   1.0000   1.0000   1.0000   1.0000   1.0000   1.0000
     1.0000   1.0000   1.0000   1.0000   1.0000   1.0000   1.0000   1.0000
     1.0000   1.0000   0.2833   0.0000

          k = 0.0000 0.0909-0.5175 (  5350 PWs)   bands (ev):

   -81.9367 -48.1008 -48.1007 -48.0997 -43.8105 -43.7912 -43.7909   3.9362
     3.9769   4.2082   4.3845   4.5042   4.6786   5.5327   5.8252   6.0630
     6.2526   6.4864   7.2961  14.8235

     occupation numbers 
     1.0000   1.0000   1.0000   1.0000   1.0000   1.0000   1.0000   1.0000
     1.0000   1.0000   1.0000   1.0000   1.0000   1.0000   1.0000   1.0000
     1.0000   1.0000   1.0073   0.0000

          k = 0.0000 0.1818 0.0000 (  5368 PWs)   bands (ev):

   -81.9367 -48.1011 -48.1008 -48.0982 -43.8048 -43.7923 -43.7912   2.4560
     3.8138   3.8425   4.4197   4.4453   4.4760   5.7856   5.9370   6.4138
     6.4638   6.5900  10.0482  13.1744

     occupation numbers 
     1.0000   1.0000   1.0000   1.0000   1.0000   1.0000   1.0000   1.0000
     1.0000   1.0000   1.0000   1.0000   1.0000   1.0000   1.0000   1.0000
     1.0000   1.0001   0.0000   0.0000

          k = 0.0000 0.1818 0.0862 (  5363 PWs)   bands (ev):

   -81.9367 -48.1011 -48.1008 -48.0983 -43.8051 -43.7923 -43.7912   2.5366
     3.8287   3.8554   4.4086   4.4408   4.4808   5.8137   5.9373   6.3941
     6.4120   6.5813  10.1551  12.8912

     occupation numbers 
     1.0000   1.0000   1.0000   1.0000   1.0000   1.0000   1.0000   1.0000
     1.0000   1.0000   1.0000   1.0000   1.0000   1.0000   1.0000   1.0000
     1.0000   1.0001   0.0000   0.0000

          k = 0.0000 0.1818 0.1725 (  5359 PWs)   bands (ev):

   -81.9367 -48.1011 -48.1008 -48.0986 -43.8062 -43.7922 -43.7911   2.7721
     3.8585   3.9016   4.3865   4.4316   4.4847   5.8737   5.9552   6.2831
     6.3408   6.5607  10.4052  11.5549

     occupation numbers 
     1.0000   1.0000   1.0000   1.0000   1.0000   1.0000   1.0000   1.0000
     1.0000   1.0000   1.0000   1.0000   1.0000   1.0000   1.0000   1.0000
     1.0000   1.0001   0.0000   0.0000

          k = 0.0000 0.1818 0.2587 (  5359 PWs)   bands (ev):

   -81.9367 -48.1011 -48.1008 -48.0990 -43.8076 -43.7921 -43.7910   3.1380
     3.8917   3.9738   4.3656   4.4330   4.4786   5.8754   6.0254   6.1662
     6.2730   6.5358   9.9195  11.1690

     occupation numbers 
     1.0000   1.0000   1.0000   1.0000   1.0000   1.0000   1.0000   1.0000
     1.0000   1.0000   1.0000   1.0000   1.0000   1.0000   1.0000   1.0000
     1.0000   1.0000   0.0000   0.0000

          k = 0.0000 0.1818 0.3450 (  5354 PWs)   bands (ev):

   -81.9367 -48.1010 -48.1007 -48.0994 -43.8090 -43.7920 -43.7909   3.5610
     3.9278   4.0480   4.3520   4.4624   4.4946   5.7904   5.9726   6.2133
     6.2781   6.5117   8.7648  11.7360

     occupation numbers 
     1.0000   1.0000   1.0000   1.0000   1.0000   1.0000   1.0000   1.0000
     1.0000   1.0000   1.0000   1.0000   1.0000   1.0000   1.0000   1.0000
     1.0000   1.0000   0.0000   0.0000

          k = 0.0000 0.1818 0.4312 (  5344 PWs)   bands (ev):

   -81.9367 -48.1010 -48.1007 -48.0996 -43.8101 -43.7919 -43.7909   3.8494
     3.9807   4.0871   4.3475   4.4434   4.7477   5.5845   5.9447   6.1751
     6.4825   6.4936   7.7973  12.4863

     occupation numbers 
     1.0000   1.0000   1.0000   1.0000   1.0000   1.0000   1.0000   1.0000
     1.0000   1.0000   1.0000   1.0000   1.0000   1.0000   1.0000   1.0000
     1.0000   1.0000   0.0416   0.0000

          k = 0.0000 0.1818-0.5175 (  5346 PWs)   bands (ev):

   -81.9367 -48.1010 -48.1007 -48.0997 -43.8105 -43.7919 -43.7908   3.9054
     4.0572   4.0627   4.3475   4.4343   5.0716   5.3400   5.9397   6.1624
     6.4868   6.6531   7.3255  13.2266

     occupation numbers 
     1.0000   1.0000   1.0000   1.0000   1.0000   1.0000   1.0000   1.0000
     1.0000   1.0000   1.0000   1.0000   1.0000   1.0000   1.0000   1.0000
     1.0000   1.0003   0.9633   0.0000

          k = 0.0000 0.2727 0.0000 (  5358 PWs)   bands (ev):

   -81.9367 -48.1013 -48.1008 -48.0982 -43.8047 -43.7933 -43.7912   2.8987
     3.8589   3.9149   4.4166   4.4399   4.4998   5.7561   5.9635   6.2592
     6.3290   6.5652   8.7255  13.8763

     occupation numbers 
     1.0000   1.0000   1.0000   1.0000   1.0000   1.0000   1.0000   1.0000
     1.0000   1.0000   1.0000   1.0000   1.0000   1.0000   1.0000   1.0000
     1.0000   1.0001   0.0000   0.0000

          k = 0.0000 0.2727 0.0862 (  5353 PWs)   bands (ev):

   -81.9367 -48.1013 -48.1008 -48.0983 -43.8051 -43.7932 -43.7911   2.9718
     3.8712   3.9267   4.4021   4.4378   4.4973   5.7899   5.9529   6.2595
     6.2939   6.5589   8.8420  13.4553

     occupation numbers 
     1.0000   1.0000   1.0000   1.0000   1.0000   1.0000   1.0000   1.0000
     1.0000   1.0000   1.0000   1.0000   1.0000   1.0000   1.0000   1.0000
     1.0000   1.0001   0.0000   0.0000

          k = 0.0000 0.2727 0.1725 (  5370 PWs)   bands (ev):

   -81.9367 -48.1013 -48.1008 -48.0986 -43.8061 -43.7932 -43.7911   3.1780
     3.8944   3.9693   4.3695   4.4419   4.4830   5.8558   5.9478   6.2233
     6.2608   6.5430   9.1640  11.9839

     occupation numbers 
     1.0000   1.0000   1.0000   1.0000   1.0000   1.0000   1.0000   1.0000
     1.0000   1.0000   1.0000   1.0000   1.0000   1.0000   1.0000   1.0000
     1.0000   1.0000   0.0000   0.0000

          k = 0.0000 0.2727 0.2587 (  5362 PWs)   bands (ev):

   -81.9367 -48.1013 -48.1007 -48.0990 -43.8075 -43.7931 -43.7910   3.4646
     3.9157   4.0398   4.3349   4.4522   4.4907   5.8087   6.0852   6.1710
     6.2647   6.5236   9.6408  10.5719

     occupation numbers 
     1.0000   1.0000   1.0000   1.0000   1.0000   1.0000   1.0000   1.0000
     1.0000   1.0000   1.0000   1.0000   1.0000   1.0000   1.0000   1.0000
     1.0000   1.0000   0.0000   0.0000

          k = 0.0000 0.2727 0.3450 (  5355 PWs)   bands (ev):

   -81.9367 -48.1013 -48.1007 -48.0993 -43.8090 -43.7930 -43.7909   3.7114
     3.9350   4.1111   4.3097   4.4107   4.6734   5.7258   6.1377   6.2718
     6.3207   6.5056   9.2581  10.2800

     occupation numbers 
     1.0000   1.0000   1.0000   1.0000   1.0000   1.0000   1.0000   1.0000
     1.0000   1.0000   1.0000   1.0000   1.0000   1.0000   1.0000   1.0000
     1.0000   1.0000   0.0000   0.0000

          k = 0.0000 0.2727 0.4312 (  5337 PWs)   bands (ev):

   -81.9367 -48.1012 -48.1007 -48.0996 -43.8100 -43.7929 -43.7908   3.8307
     3.9480   4.1494   4.2996   4.3713   5.0043   5.6356   6.1260   6.2795
     6.4925   6.6652   8.1494  11.0174

     occupation numbers 
     1.0000   1.0000   1.0000   1.0000   1.0000   1.0000   1.0000   1.0000
     1.0000   1.0000   1.0000   1.0000   1.0000   1.0000   1.0000   1.0000
     1.0000   1.0004   0.0001   0.0000

          k = 0.0000 0.2727-0.5175 (  5340 PWs)   bands (ev):

   -81.9367 -48.1012 -48.1007 -48.0997 -43.8104 -43.7928 -43.7908   3.8621
     3.9513   4.1591   4.2998   4.3529   5.2121   5.5636   6.1226   6.2830
     6.4875   7.1345   7.3853  11.6921

     occupation numbers 
     1.0000   1.0000   1.0000   1.0000   1.0000   1.0000   1.0000   1.0000
     1.0000   1.0000   1.0000   1.0000   1.0000   1.0000   1.0000   1.0000
     1.0000   1.0802   0.8428   0.0000

          k = 0.0000 0.3636 0.0000 (  5360 PWs)   bands (ev):

   -81.9367 -48.1016 -48.1008 -48.0982 -43.8046 -43.7942 -43.7911   3.4565
     3.9025   3.9984   4.4146   4.4356   4.5222   5.7240   5.8808   6.1263
     6.2120   6.5420   7.6781  14.7732

     occupation numbers 
     1.0000   1.0000   1.0000   1.0000   1.0000   1.0000   1.0000   1.0000
     1.0000   1.0000   1.0000   1.0000   1.0000   1.0000   1.0000   1.0000
     1.0000   1.0000   0.1506   0.0000

          k = 0.0000 0.3636 0.0862 (  5359 PWs)   bands (ev):

   -81.9367 -48.1016 -48.1008 -48.0983 -43.8050 -43.7941 -43.7911   3.5097
     3.9118   4.0070   4.4009   4.4507   4.5075   5.7636   5.8176   6.1466
     6.2590   6.5363   7.7704  14.1751

     occupation numbers 
     1.0000   1.0000   1.0000   1.0000   1.0000   1.0000   1.0000   1.0000
     1.0000   1.0000   1.0000   1.0000   1.0000   1.0000   1.0000   1.0000
     1.0000   1.0000   0.0574   0.0000

          k = 0.0000 0.3636 0.1725 (  5364 PWs)   bands (ev):

   -81.9367 -48.1015 -48.1007 -48.0986 -43.8061 -43.7941 -43.7910   3.6363
     3.9320   4.0355   4.3653   4.4673   4.5217   5.7163   5.8770   6.2004
     6.3335   6.5219   8.0342  12.6662

     occupation numbers 
     1.0000   1.0000   1.0000   1.0000   1.0000   1.0000   1.0000   1.0000
     1.0000   1.0000   1.0000   1.0000   1.0000   1.0000   1.0000   1.0000
     1.0000   1.0000   0.0011   0.0000

          k = 0.0000 0.3636 0.2587 (  5352 PWs)   bands (ev):

   -81.9367 -48.1015 -48.1007 -48.0990 -43.8075 -43.7939 -43.7909   3.7443
     3.9411   4.0990   4.3209   4.4115   4.6964   5.6762   6.0535   6.2695
     6.3931   6.5049   8.4430  11.2216

     occupation numbers 
     1.0000   1.0000   1.0000   1.0000   1.0000   1.0000   1.0000   1.0000
     1.0000   1.0000   1.0000   1.0000   1.0000   1.0000   1.0000   1.0000
     1.0000   1.0000   0.0000   0.0000

          k = 0.0000 0.3636 0.3450 (  5347 PWs)   bands (ev):

   -81.9367 -48.1015 -48.1007 -48.0993 -43.8089 -43.7938 -43.7908   3.7902
     3.9219   4.1797   4.2826   4.3532   4.9369   5.7512   6.3226   6.3330
     6.4391   6.4922   8.9536   9.9224

     occupation numbers 
     1.0000   1.0000   1.0000   1.0000   1.0000   1.0000   1.0000   1.0000
     1.0000   1.0000   1.0000   1.0000   1.0000   1.0000   1.0000   1.0000
     1.0000   1.0000   0.0000   0.0000

          k = 0.0000 0.3636 0.4312 (  5348 PWs)   bands (ev):

   -81.9367 -48.1015 -48.1007 -48.0996 -43.8099 -43.7938 -43.7907   3.8101
     3.8910   4.2306   4.2610   4.3061   5.1002   5.8898   6.3740   6.4665
     6.4878   6.8162   8.6039   9.7501

     occupation numbers 
     1.0000   1.0000   1.0000   1.0000   1.0000   1.0000   1.0000   1.0000
     1.0000   1.0000   1.0000   1.0000   1.0000   1.0000   1.0000   1.0000
     1.0000   1.0050   0.0000   0.0000

          k = 0.0000 0.3636-0.5175 (  5348 PWs)   bands (ev):

   -81.9367 -48.1015 -48.1007 -48.0997 -43.8103 -43.7937 -43.7907   3.8199
     3.8737   4.2465   4.2567   4.2856   5.1487   5.9490   6.3870   6.4789
     6.4882   7.5313   7.6794  10.2832

     occupation numbers 
     1.0000   1.0000   1.0000   1.0000   1.0000   1.0000   1.0000   1.0000
     1.0000   1.0000   1.0000   1.0000   1.0000   1.0000   1.0000   1.0000
     1.0000   0.4544   0.1487   0.0000

          k = 0.0000 0.4545 0.0000 (  5380 PWs)   bands (ev):

   -81.9367 -48.1017 -48.1008 -48.0982 -43.8046 -43.7947 -43.7911   3.8630
     3.9320   4.1957   4.4140   4.4334   4.5358   5.5663   5.7145   6.0506
     6.1450   6.5279   7.1446  15.8240

     occupation numbers 
     1.0000   1.0000   1.0000   1.0000   1.0000   1.0000   1.0000   1.0000
     1.0000   1.0000   1.0000   1.0000   1.0000   1.0000   1.0000   1.0000
     1.0000   1.0000   1.0818   0.0000

          k = 0.0000 0.4545 0.0862 (  5359 PWs)   bands (ev):

   -81.9367 -48.1017 -48.1007 -48.0983 -43.8050 -43.7947 -43.7910   3.8838
     3.9374   4.1465   4.4022   4.5114   4.5466   5.4921   5.7544   6.0837
     6.2672   6.5223   7.1693  15.0173

     occupation numbers 
     1.0000   1.0000   1.0000   1.0000   1.0000   1.0000   1.0000   1.0000
     1.0000   1.0000   1.0000   1.0000   1.0000   1.0000   1.0000   1.0000
     1.0000   1.0000   1.0833   0.0000

          k = 0.0000 0.4545 0.1725 (  5350 PWs)   bands (ev):

   -81.9367 -48.1017 -48.1007 -48.0986 -43.8060 -43.7946 -43.7910   3.8852
     3.9952   4.0712   4.3698   4.4494   4.8118   5.3895   5.8685   6.1697
     6.5077   6.5152   7.2582  13.5021

     occupation numbers 
     1.0000   1.0000   1.0000   1.0000   1.0000   1.0000   1.0000   1.0000
     1.0000   1.0000   1.0000   1.0000   1.0000   1.0000   1.0000   1.0000
     1.0000   1.0000   1.0483   0.0000

          k = 0.0000 0.4545 0.2587 (  5357 PWs)   bands (ev):

   -81.9367 -48.1017 -48.1007 -48.0990 -43.8074 -43.7945 -43.7909   3.8576
     3.9683   4.1231   4.3254   4.3736   5.0588   5.4780   6.0438   6.2787
     6.4895   6.7620   7.4644  12.0432

     occupation numbers 
     1.0000   1.0000   1.0000   1.0000   1.0000   1.0000   1.0000   1.0000
     1.0000   1.0000   1.0000   1.0000   1.0000   1.0000   1.0000   1.0000
     1.0000   1.0023   0.6375   0.0000

          k = 0.0000 0.4545 0.3450 (  5343 PWs)   bands (ev):

   -81.9367 -48.1016 -48.1007 -48.0993 -43.8088 -43.7943 -43.7908   3.8254
     3.9001   4.2169   4.2801   4.3064   5.1050   5.8283   6.3437   6.3794
     6.4740   6.9609   7.8383  10.6918

     occupation numbers 
     1.0000   1.0000   1.0000   1.0000   1.0000   1.0000   1.0000   1.0000
     1.0000   1.0000   1.0000   1.0000   1.0000   1.0000   1.0000   1.0000
     1.0000   1.0275   0.0245   0.0000

          k = 0.0000 0.4545 0.4312 (  5349 PWs)   bands (ev):

   -81.9367 -48.1016 -48.1007 -48.0996 -43.8099 -43.7943 -43.7907   3.8019
     3.8516   4.2450   4.2629   4.2754   5.1201   6.0286   6.4395   6.4740
     6.7421   7.3166   8.2902   9.5275

     occupation numbers 
     1.0000   1.0000   1.0000   1.0000   1.0000   1.0000   1.0000   1.0000
     1.0000   1.0000   1.0000   1.0000   1.0000   1.0000   1.0000   1.0000
     1.0016   0.9778   0.0000   0.0000

          k = 0.0000 0.4545-0.5175 (  5344 PWs)   bands (ev):

   -81.9367 -48.1016 -48.1007 -48.0997 -43.8103 -43.7942 -43.7907   3.7940
     3.8335   4.2315   4.2484   4.2941   5.1283   6.0811   6.4463   6.4886
     6.8472   7.9809   8.1749   9.0790

     occupation numbers 
     1.0000   1.0000   1.0000   1.0000   1.0000   1.0000   1.0000   1.0000
     1.0000   1.0000   1.0000   1.0000   1.0000   1.0000   1.0000   1.0000
     1.0076   0.0028   0.0001   0.0000

          k = 0.0909 0.0909 0.0000 (  5371 PWs)   bands (ev):

   -81.9368 -48.1009 -48.1009 -48.0983 -43.8048 -43.7915 -43.7915   2.2721
     3.7939   3.8068   4.4213   4.4395   4.4709   5.8033   5.9128   6.4881
     6.5344   6.6044  11.3275  12.0700

     occupation numbers 
     1.0000   1.0000   1.0000   1.0000   1.0000   1.0000   1.0000   1.0000
     1.0000   1.0000   1.0000   1.0000   1.0000   1.0000   1.0000   1.0000
     1.0000   1.0001   0.0000   0.0000

          k = 0.0909 0.0909 0.0862 (  5373 PWs)   bands (ev):

   -81.9367 -48.1009 -48.1009 -48.0983 -43.8052 -43.7915 -43.7915   2.3550
     3.8135   3.8166   4.4157   4.4348   4.4747   5.8308   5.9093   6.4391
     6.5417   6.5569  11.3459  12.2051

     occupation numbers 
     1.0000   1.0000   1.0000   1.0000   1.0000   1.0000   1.0000   1.0000
     1.0000   1.0000   1.0000   1.0000   1.0000   1.0000   1.0000   1.0000
     1.0000   1.0001   0.0000   0.0000

          k = 0.0909 0.0909 0.1725 (  5362 PWs)   bands (ev):

   -81.9367 -48.1009 -48.1009 -48.0986 -43.8062 -43.7915 -43.7914   2.5991
     3.8439   3.8669   4.4045   4.4221   4.4818   5.8996   5.9049   6.3372
     6.4336   6.5370  10.8848  12.1672

     occupation numbers 
     1.0000   1.0000   1.0000   1.0000   1.0000   1.0000   1.0000   1.0000
     1.0000   1.0000   1.0000   1.0000   1.0000   1.0000   1.0000   1.0000
     1.0000   1.0000   0.0000   0.0000

          k = 0.0909 0.0909 0.2587 (  5357 PWs)   bands (ev):

   -81.9367 -48.1009 -48.1009 -48.0990 -43.8076 -43.7914 -43.7914   2.9873
     3.8822   3.9411   4.3980   4.4050   4.4872   5.8862   5.9810   6.2406
     6.2774   6.5218   9.7061  12.4710

     occupation numbers 
     1.0000   1.0000   1.0000   1.0000   1.0000   1.0000   1.0000   1.0000
     1.0000   1.0000   1.0000   1.0000   1.0000   1.0000   1.0000   1.0000
     1.0000   1.0000   0.0000   0.0000

          k = 0.0909 0.0909 0.3450 (  5358 PWs)   bands (ev):

   -81.9367 -48.1008 -48.1008 -48.0994 -43.8091 -43.7913 -43.7913   3.4690
     3.9218   4.0229   4.3881   4.4162   4.4915   5.8736   5.9149   6.1315
     6.2756   6.5063   8.5561  13.0409

     occupation numbers 
     1.0000   1.0000   1.0000   1.0000   1.0000   1.0000   1.0000   1.0000
     1.0000   1.0000   1.0000   1.0000   1.0000   1.0000   1.0000   1.0000
     1.0000   1.0000   0.0000   0.0000

          k = 0.0909 0.0909 0.4312 (  5368 PWs)   bands (ev):

   -81.9367 -48.1008 -48.1008 -48.0996 -43.8101 -43.7912 -43.7912   3.8665
     3.9517   4.1113   4.3759   4.4739   4.5778   5.6933   5.8667   6.0278
     6.3974   6.4976   7.6722  13.7615

     occupation numbers 
     1.0000   1.0000   1.0000   1.0000   1.0000   1.0000   1.0000   1.0000
     1.0000   1.0000   1.0000   1.0000   1.0000   1.0000   1.0000   1.0000
     1.0000   1.0000   0.1590   0.0000

          k = 0.0909 0.0909-0.5175 (  5352 PWs)   bands (ev):

   -81.9367 -48.1008 -48.1008 -48.0997 -43.8105 -43.7912 -43.7912   3.9628
     3.9707   4.1576   4.3715   4.4787   4.8079   5.4772   5.8659   5.9892
     6.4853   6.4853   7.3088  14.4593

     occupation numbers 
     1.0000   1.0000   1.0000   1.0000   1.0000   1.0000   1.0000   1.0000
     1.0000   1.0000   1.0000   1.0000   1.0000   1.0000   1.0000   1.0000
     1.0000   1.0000   0.9896   0.0000

          k = 0.0909 0.1818 0.0000 (  5352 PWs)   bands (ev):

   -81.9367 -48.1011 -48.1009 -48.0982 -43.8047 -43.7923 -43.7915   2.5444
     3.8255   3.8591   4.4181   4.4291   4.4871   5.7944   5.9494   6.3566
     6.4404   6.5878  10.1599  12.2197

     occupation numbers 
     1.0000   1.0000   1.0000   1.0000   1.0000   1.0000   1.0000   1.0000
     1.0000   1.0000   1.0000   1.0000   1.0000   1.0000   1.0000   1.0000
     1.0000   1.0001   0.0000   0.0000

          k = 0.0909 0.1818 0.0862 (  5361 PWs)   bands (ev):

   -81.9367 -48.1011 -48.1009 -48.0983 -43.8051 -43.7923 -43.7915   2.6245
     3.8430   3.8689   4.4059   4.4243   4.4900   5.8249   5.9492   6.3270
     6.4280   6.5561  10.2550  12.2827

     occupation numbers 
     1.0000   1.0000   1.0000   1.0000   1.0000   1.0000   1.0000   1.0000
     1.0000   1.0000   1.0000   1.0000   1.0000   1.0000   1.0000   1.0000
     1.0000   1.0001   0.0000   0.0000

          k = 0.0909 0.1818 0.1725 (  5359 PWs)   bands (ev):

   -81.9367 -48.1011 -48.1009 -48.0986 -43.8062 -43.7922 -43.7914   2.8581
     3.8780   3.9083   4.3820   4.4121   4.4896   5.8981   5.9589   6.2527
     6.3622   6.5103  10.4669  11.6702

     occupation numbers 
     1.0000   1.0000   1.0000   1.0000   1.0000   1.0000   1.0000   1.0000
     1.0000   1.0000   1.0000   1.0000   1.0000   1.0000   1.0000   1.0000
     1.0000   1.0000   0.0000   0.0000

          k = 0.0909 0.1818 0.2587 (  5364 PWs)   bands (ev):

   -81.9367 -48.1010 -48.1008 -48.0990 -43.8076 -43.7921 -43.7913   3.2188
     3.9105   3.9789   4.3618   4.4042   4.4816   5.9089   6.0248   6.1847
     6.2635   6.4921  10.0056  11.2687

     occupation numbers 
     1.0000   1.0000   1.0000   1.0000   1.0000   1.0000   1.0000   1.0000
     1.0000   1.0000   1.0000   1.0000   1.0000   1.0000   1.0000   1.0000
     1.0000   1.0000   0.0000   0.0000

          k = 0.0909 0.1818 0.3450 (  5360 PWs)   bands (ev):

   -81.9367 -48.1010 -48.1008 -48.0994 -43.8090 -43.7920 -43.7912   3.6259
     3.9437   4.0521   4.3492   4.4226   4.5082   5.8303   5.9894   6.1441
[...]
     8.0202   8.0239   9.3536  10.1343

     occupation numbers 
     1.0000   1.0000   1.0000   1.0000   1.0000   1.0000   1.0000   1.0000
     1.0000   1.0000   1.0000   1.0000   1.0000   0.7305   0.0219   0.0089
     0.0014   0.0013   0.0000   0.0000

          k = 0.3636 0.3636 0.0862 (  5392 PWs)   bands (ev):

   -78.0251 -44.2638 -44.2629 -44.2628 -43.5861 -43.5749 -43.5748   4.7205
     5.3108   6.1107   6.1810   6.5084   6.5399   7.4135   7.8438   7.9173
     7.9755   8.1221   9.5490  10.1532

     occupation numbers 
     1.0000   1.0000   1.0000   1.0000   1.0000   1.0000   1.0000   1.0000
     1.0000   1.0000   1.0000   1.0000   1.0000   0.7738   0.0228   0.0079
     0.0031   0.0002   0.0000   0.0000

          k = 0.3636 0.3636 0.1725 (  5384 PWs)   bands (ev):

   -78.0251 -44.2641 -44.2628 -44.2627 -43.5872 -43.5749 -43.5748   4.9171
     5.4726   6.0042   6.0356   6.4722   6.5451   7.4146   7.6546   7.9843
     8.1624   8.2148  10.0394  10.2179

     occupation numbers 
     1.0000   1.0000   1.0000   1.0000   1.0000   1.0000   1.0000   1.0000
     1.0000   1.0000   1.0000   1.0000   1.0000   0.7709   0.1861   0.0026
     0.0001   0.0000   0.0000   0.0000

          k = 0.3636 0.3636 0.2587 (  5377 PWs)   bands (ev):

   -78.0250 -44.2646 -44.2627 -44.2627 -43.5886 -43.5748 -43.5747   5.1604
     5.7375   5.8684   5.8982   6.4443   6.5466   7.4397   7.5093   8.0725
     8.1808   8.4893  10.3481  10.7052

     occupation numbers 
     1.0000   1.0000   1.0000   1.0000   1.0000   1.0000   1.0000   1.0000
     1.0000   1.0000   1.0000   1.0000   1.0000   0.7049   0.5135   0.0005
     0.0001   0.0000   0.0000   0.0000

          k = 0.3636 0.3636 0.3450 (  5377 PWs)   bands (ev):

   -78.0250 -44.2651 -44.2626 -44.2626 -43.5900 -43.5747 -43.5747   5.3401
     5.7353   5.7419   6.1685   6.4798   6.5438   7.4162   7.4470   8.1647
     8.1912   8.7739  10.5502  11.4897

     occupation numbers 
     1.0000   1.0000   1.0000   1.0000   1.0000   1.0000   1.0000   1.0000
     1.0000   1.0000   1.0000   1.0000   1.0000   0.7669   0.6853   0.0001
     0.0000   0.0000   0.0000   0.0000

          k = 0.3636 0.3636 0.4312 (  5369 PWs)   bands (ev):

   -78.0250 -44.2655 -44.2626 -44.2625 -43.5911 -43.5747 -43.5746   5.3996
     5.6544   5.7109   6.3445   6.5398   6.7821   7.3662   7.3832   8.1969
     8.2353   9.1036  10.5858  11.5004

     occupation numbers 
     1.0000   1.0000   1.0000   1.0000   1.0000   1.0000   1.0000   1.0000
     1.0000   1.0000   1.0000   1.0000   1.0031   0.8853   0.8475   0.0000
     0.0000   0.0000   0.0000   0.0000

          k = 0.3636 0.3636-0.5175 (  5374 PWs)   bands (ev):

   -78.0250 -44.2656 -44.2626 -44.2625 -43.5915 -43.5747 -43.5746   5.4009
     5.6234   5.7179   6.3682   6.5379   7.0725   7.2497   7.3507   8.1988
     8.2617   9.3650  10.2572  11.7503

     occupation numbers 
     1.0000   1.0000   1.0000   1.0000   1.0000   1.0000   1.0000   1.0000
     1.0000   1.0000   1.0000   1.0000   1.0632   1.0551   0.9173   0.0000
     0.0000   0.0000   0.0000   0.0000

          k = 0.3636 0.4545 0.0000 (  5383 PWs)   bands (ev):

   -78.0251 -44.2636 -44.2630 -44.2628 -43.5857 -43.5754 -43.5748   4.9030
     5.0970   6.1235   6.1733   6.5825   6.9893   7.5509   7.9298   7.9442
     8.0083   8.0166   8.6069  10.5073

     occupation numbers 
     1.0000   1.0000   1.0000   1.0000   1.0000   1.0000   1.0000   1.0000
     1.0000   1.0000   1.0000   1.0001   1.0354   0.4039   0.0065   0.0052
     0.0017   0.0015   0.0000   0.0000

          k = 0.3636 0.4545 0.0862 (  5381 PWs)   bands (ev):

   -78.0251 -44.2638 -44.2630 -44.2628 -43.5861 -43.5754 -43.5748   4.9621
     5.1649   6.0785   6.1291   6.5734   6.9830   7.4432   7.7492   7.9464
     8.1044   8.2241   8.7833  10.5681

     occupation numbers 
     1.0000   1.0000   1.0000   1.0000   1.0000   1.0000   1.0000   1.0000
     1.0000   1.0000   1.0000   1.0001   1.0336   0.6954   0.0730   0.0050
     0.0003   0.0000   0.0000   0.0000

          k = 0.3636 0.4545 0.1725 (  5382 PWs)   bands (ev):

   -78.0251 -44.2641 -44.2630 -44.2628 -43.5871 -43.5753 -43.5748   5.0983
     5.3919   5.9580   6.0148   6.5487   6.9579   7.3373   7.5472   8.0041
     8.1899   8.5170   9.1850  10.7692

     occupation numbers 
     1.0000   1.0000   1.0000   1.0000   1.0000   1.0000   1.0000   1.0000
     1.0000   1.0000   1.0000   1.0000   1.0267   0.9427   0.4133   0.0019
     0.0000   0.0000   0.0000   0.0000

          k = 0.3636 0.4545 0.2587 (  5377 PWs)   bands (ev):

   -78.0250 -44.2646 -44.2629 -44.2627 -43.5886 -43.5753 -43.5747   5.2536
     5.7614   5.8120   5.8832   6.5175   6.9229   7.2887   7.4391   8.0865
     8.2147   8.8228   9.6502  11.1409

     occupation numbers 
     1.0000   1.0000   1.0000   1.0000   1.0000   1.0000   1.0000   1.0000
     1.0000   1.0000   1.0000   1.0000   1.0187   1.0167   0.7064   0.0004
     0.0000   0.0000   0.0000   0.0000

          k = 0.3636 0.4545 0.3450 (  5372 PWs)   bands (ev):

   -78.0250 -44.2651 -44.2628 -44.2626 -43.5900 -43.5752 -43.5747   5.3842
     5.6814   5.7305   6.2590   6.5044   6.9000   7.2514   7.3989   8.1722
     8.2286   9.1053  10.1277  11.6163

     occupation numbers 
     1.0000   1.0000   1.0000   1.0000   1.0000   1.0000   1.0000   1.0000
     1.0000   1.0000   1.0000   1.0000   1.0145   1.0538   0.8103   0.0001
     0.0000   0.0000   0.0000   0.0000

          k = 0.3636 0.4545 0.4312 (  5383 PWs)   bands (ev):

   -78.0250 -44.2654 -44.2628 -44.2625 -43.5911 -43.5752 -43.5746   5.4307
     5.6360   5.6496   6.4367   6.7777   6.8952   7.2230   7.3447   8.2219
     8.2532   9.4113  10.6117  11.5285

     occupation numbers 
     1.0000   1.0000   1.0000   1.0000   1.0000   1.0000   1.0000   1.0000
     1.0000   1.0000   1.0000   1.0029   1.0137   1.0713   0.9290   0.0000
     0.0000   0.0000   0.0000   0.0000

          k = 0.3636 0.4545-0.5175 (  5390 PWs)   bands (ev):

   -78.0250 -44.2656 -44.2627 -44.2625 -43.5914 -43.5751 -43.5746   5.4260
     5.6062   5.6564   6.4369   6.8908   7.0572   7.1741   7.2752   8.2281
     8.2747   9.6224  10.8445  11.5009

     occupation numbers 
     1.0000   1.0000   1.0000   1.0000   1.0000   1.0000   1.0000   1.0000
     1.0000   1.0000   1.0000   1.0131   1.0579   1.0832   1.0321   0.0000
     0.0000   0.0000   0.0000   0.0000

          k = 0.4545 0.4545 0.0000 (  5396 PWs)   bands (ev):

   -78.0251 -44.2636 -44.2631 -44.2630 -43.5857 -43.5753 -43.5753   4.9260
     5.0916   6.0914   6.1021   6.9493   7.0500   7.9417   8.0160   8.0163
     8.0390   8.1241   8.5497   9.7226

     occupation numbers 
     1.0000   1.0000   1.0000   1.0000   1.0000   1.0000   1.0000   1.0000
     1.0000   1.0000   1.0000   1.0245   1.0555   0.0054   0.0015   0.0015
     0.0010   0.0002   0.0000   0.0000

          k = 0.4545 0.4545 0.0862 (  5379 PWs)   bands (ev):

   -78.0251 -44.2637 -44.2630 -44.2630 -43.5861 -43.5753 -43.5753   4.9667
     5.1790   6.0525   6.0613   6.9471   7.0527   7.6356   7.7474   7.9838
     8.2228   8.4540   8.8637   9.7522

     occupation numbers 
     1.0000   1.0000   1.0000   1.0000   1.0000   1.0000   1.0000   1.0000
     1.0000   1.0000   1.0000   1.0240   1.0564   0.2187   0.0744   0.0027
     0.0000   0.0000   0.0000   0.0000

          k = 0.4545 0.4545 0.1725 (  5372 PWs)   bands (ev):

   -78.0250 -44.2641 -44.2630 -44.2630 -43.5871 -43.5753 -43.5753   5.0784
     5.4347   5.9468   5.9509   6.9384   7.0447   7.3963   7.4695   8.0359
     8.2426   8.8971   9.4781   9.8803

     occupation numbers 
     1.0000   1.0000   1.0000   1.0000   1.0000   1.0000   1.0000   1.0000
     1.0000   1.0000   1.0000   1.0220   1.0536   0.8166   0.6233   0.0011
     0.0000   0.0000   0.0000   0.0000

          k = 0.4545 0.4545 0.2587 (  5362 PWs)   bands (ev):

   -78.0250 -44.2646 -44.2629 -44.2629 -43.5885 -43.5752 -43.5752   5.2358
     5.7954   5.8066   5.8410   6.9186   6.9919   7.2927   7.3022   8.1113
     8.2504   9.2109  10.1905  10.2153

     occupation numbers 
     1.0000   1.0000   1.0000   1.0000   1.0000   1.0000   1.0000   1.0000
     1.0000   1.0000   1.0000   1.0179   1.0362   1.0117   0.9991   0.0002
     0.0000   0.0000   0.0000   0.0000

          k = 0.4545 0.4545 0.3450 (  5372 PWs)   bands (ev):

   -78.0250 -44.2650 -44.2628 -44.2628 -43.5900 -43.5752 -43.5752   5.3995
     5.6685   5.6731   6.3059   6.8879   6.9223   7.2011   7.2834   8.1919
     8.2555   9.4113  10.5982  11.0428

     occupation numbers 
     1.0000   1.0000   1.0000   1.0000   1.0000   1.0000   1.0000   1.0000
     1.0000   1.0000   1.0000   1.0126   1.0186   1.0792   1.0230   0.0000
     0.0000   0.0000   0.0000   0.0000

          k = 0.4545 0.4545 0.4312 (  5374 PWs)   bands (ev):

   -78.0250 -44.2654 -44.2627 -44.2627 -43.5911 -43.5752 -43.5752   5.5118
     5.5803   5.5879   6.7483   6.8596   6.8782   7.1630   7.2435   8.2545
     8.2589   9.6131  10.9292  11.9829

     occupation numbers 
     1.0000   1.0000   1.0000   1.0000   1.0000   1.0000   1.0000   1.0000
     1.0000   1.0000   1.0018   1.0089   1.0112   1.0833   1.0596   0.0000
     0.0000   0.0000   0.0000   0.0000

          k = 0.4545 0.4545-0.5175 (  5388 PWs)   bands (ev):

   -78.0250 -44.2655 -44.2627 -44.2627 -43.5914 -43.5751 -43.5751   5.5179
     5.5473   5.5957   6.8483   6.8597   7.0011   7.1531   7.1576   8.2601
     8.2783   9.7399  11.0786  12.0520

     occupation numbers 
     1.0000   1.0000   1.0000   1.0000   1.0000   1.0000   1.0000   1.0000
     1.0000   1.0000   1.0077   1.0089   1.0391   1.0827   1.0830   0.0000
     0.0000   0.0000   0.0000   0.0000

     the Fermi energy is     7.5522 ev

!    total energy              =    -537.13298828 Ry
     estimated scf accuracy    <          1.4E-10 Ry
     smearing contrib. (-TS)   =      -0.00359250 Ry
     internal energy E=F+TS    =    -537.12939578 Ry

     The total energy is F=E-TS. E is the sum of the following terms:
     one-electron contribution =    -247.44255546 Ry
     hartree contribution      =     134.01197514 Ry
     xc contribution           =     -90.58313791 Ry
     ewald contribution        =    -259.04891382 Ry
     one-center paw contrib.   =     -74.06676373 Ry
      -> PAW hartree energy AE =     196.87472236 Ry
      -> PAW hartree energy PS =    -196.01240985 Ry
      -> PAW xc energy AE      =    -108.47963464 Ry
      -> PAW xc energy PS      =      33.55055839 Ry
      -> total E_H with PAW    =     134.87428765 Ry
      -> total E_XC with PAW   =    -165.51221415 Ry

     total magnetization       =     3.87 Bohr mag/cell
     absolute magnetization    =     4.01 Bohr mag/cell

     convergence has been achieved in  19 iterations

     negative rho (up, down):  8.895E-02 8.647E-02

     Forces acting on atoms (cartesian axes, Ry/au):

     atom    1 type  1   force =     0.00000000    0.00000000    0.00000000
     atom    2 type  2   force =     0.00000000    0.00000000    0.00000000
     The non-local contrib.  to forces
     atom    1 type  1   force =     0.00000000    0.00000000    0.00000000
     atom    2 type  2   force =     0.00000000    0.00000000    0.00000000
     The ionic contribution  to forces
     atom    1 type  1   force =    -0.00000000   -0.00000000   -0.00000000
     atom    2 type  2   force =    -0.00000000   -0.00000000    0.00000000
     The local contribution  to forces
     atom    1 type  1   force =    -0.00000000   -0.00000000    0.00000000
     atom    2 type  2   force =     0.00000000    0.00000000    0.00000000
     The core correction contribution to forces
     atom    1 type  1   force =     0.00000000    0.00000000    0.00000000
     atom    2 type  2   force =     0.00000000    0.00000000   -0.00000000
     The Hubbard contrib.    to forces
     atom    1 type  1   force =     0.00000000    0.00000000    0.00000000
     atom    2 type  2   force =     0.00000000    0.00000000    0.00000000
     The SCF correction term to forces
     atom    1 type  1   force =    -0.00000000    0.00000000    0.00000000
     atom    2 type  2   force =     0.00000000   -0.00000000    0.00000000

     Total force =     0.000000     Total SCF correction =     0.000000


     Computing stress (Cartesian axis) and pressure


     negative rho (up, down):  8.895E-02 8.647E-02
          total   stress  (Ry/bohr**3)                   (kbar)     P=     -258.52
  -0.00174955   0.00000000   0.00000000         -257.37        0.00        0.00
   0.00000000  -0.00174955   0.00000000            0.00     -257.37        0.00
   0.00000000   0.00000000  -0.00177301            0.00        0.00     -260.82

     kinetic stress (kbar)  30338.56      0.00      0.00
                                0.00  30338.56      0.00
                                0.00      0.00  30329.05

     local   stress (kbar)   6149.76      0.00     -0.00
                                0.00   6149.76      0.00
                               -0.00      0.00   5758.90

     nonloc. stress (kbar) -12086.40      0.00      0.00
                                0.00 -12086.40      0.00
                                0.00      0.00 -12104.92

     hartree stress (kbar)  17603.90     -0.00     -0.00
                               -0.00  17603.90      0.00
                               -0.00      0.00  17771.99

     exc-cor stress (kbar)  10604.07     -0.00     -0.00
                               -0.00  10604.07     -0.00
                               -0.00     -0.00  10603.99

     corecor stress (kbar) -18647.62      0.00      0.00
                                0.00 -18647.62     -0.00
                                0.00     -0.00 -18647.68

     ewald   stress (kbar) -34219.64     -0.00     -0.00
                               -0.00 -34219.64     -0.00
                               -0.00     -0.00 -33972.15

     hubbard stress (kbar)      0.00      0.00      0.00
                                0.00      0.00      0.00
                                0.00      0.00      0.00

     DFT-D   stress (kbar)      0.00      0.00      0.00
                                0.00      0.00      0.00
                                0.00      0.00      0.00

     XDM     stress (kbar)      0.00      0.00      0.00
                                0.00      0.00      0.00
                                0.00      0.00      0.00

     dft-nl  stress (kbar)      0.00      0.00      0.00
                                0.00      0.00      0.00
                                0.00      0.00      0.00

     TS-vdW  stress (kbar)      0.00      0.00      0.00
                                0.00      0.00      0.00
                                0.00      0.00      0.00


                                0.00      0.00      0.00
                                0.00      0.00      0.00


                                0.00      0.00      0.00


     Writing output data file ./out/aiida.save/
 
     init_run     :      2.69s CPU      2.83s WALL (       1 calls)
     electrons    :     75.78s CPU     75.37s WALL (       1 calls)
     forces       :      0.47s CPU      0.45s WALL (       1 calls)
     stress       :     11.40s CPU      7.12s WALL (       1 calls)

     Called by init_run:
     wfcinit      :      1.46s CPU      1.63s WALL (       1 calls)
                                        1.63s GPU  (       1 calls)
     wfcinit:atom :      0.05s CPU      0.05s WALL (     294 calls)
                                        0.04s GPU  (     294 calls)
     wfcinit:wfcr :      0.95s CPU      1.00s WALL (     294 calls)
                                        1.00s GPU  (     294 calls)
     potinit      :      0.52s CPU      0.35s WALL (       1 calls)
     hinit0       :      0.39s CPU      0.34s WALL (       1 calls)

     Called by electrons:
     c_bands      :     61.25s CPU     63.10s WALL (      19 calls)
     sum_band     :      6.64s CPU      6.50s WALL (      19 calls)
     v_of_rho     :      3.02s CPU      2.35s WALL (      20 calls)
     v_h          :      0.19s CPU      0.10s WALL (      20 calls)
     v_xc         :      3.11s CPU      2.46s WALL (      22 calls)
     newd         :      0.43s CPU      0.76s WALL (      20 calls)
                                        0.76s GPU  (      20 calls)
     PAW_pot      :      3.86s CPU      2.58s WALL (      20 calls)
     mix_rho      :      0.72s CPU      0.45s WALL (      19 calls)

     Called by c_bands:
     init_us_2_gp :      1.32s CPU      1.47s WALL (   12054 calls)
     cegterg      :     58.65s CPU     59.82s WALL (    5586 calls)

     Called by sum_band:
     sum_band:wei :      0.05s CPU      0.05s WALL (      19 calls)
                                        0.05s GPU  (      19 calls)
     sum_band:loo :      5.68s CPU      5.70s WALL (      19 calls)
                                        5.70s GPU  (      19 calls)
     sum_band:buf :      0.97s CPU      1.00s WALL (    5586 calls)
                                        0.98s GPU  (    5586 calls)
     sum_band:ini :      0.69s CPU      1.35s WALL (    5586 calls)
                                        1.33s GPU  (    5586 calls)
     sum_band:cal :      0.05s CPU      0.75s WALL (    5586 calls)
                                        0.70s GPU  (    5586 calls)
     sum_band:bec :      0.36s CPU      0.38s WALL (    5586 calls)
                                        0.36s GPU  (    5586 calls)
     addusdens    :      0.43s CPU      0.43s WALL (      19 calls)
                                        0.43s GPU  (      19 calls)
     addusd:skk   :      0.00s CPU      0.20s WALL (      38 calls)
                                        0.00s GPU  (      38 calls)

     Called by *egterg:
     cdiaghg      :     23.57s CPU     23.70s WALL (   18063 calls)
                                       23.61s GPU  (   18063 calls)
     cegterg:over :     10.51s CPU     10.56s WALL (   12477 calls)
     cegterg:upda :      1.30s CPU      1.30s WALL (   12477 calls)
     cegterg:last :      1.86s CPU      1.86s WALL (   10262 calls)
     h_psi        :     14.36s CPU     15.05s WALL (   18357 calls)
                                       14.93s GPU  (   18357 calls)
     s_psi        :      0.37s CPU      2.32s WALL (   18357 calls)
                                        2.24s GPU  (   18357 calls)
     g_psi        :      0.02s CPU      0.16s WALL (   12477 calls)
                                        0.12s GPU  (   12477 calls)

     Called by h_psi:
     h_psi:calbec :      0.15s CPU      2.16s WALL (   18357 calls)
                                        2.11s GPU  (   18357 calls)
     vloc_psi     :      9.87s CPU     10.48s WALL (   18357 calls)
                                       10.33s GPU  (   18357 calls)
     add_vuspsi   :      0.16s CPU      2.13s WALL (   18357 calls)
                                        2.07s GPU  (   18357 calls)

     General routines
     calbec       :      0.19s CPU      0.19s WALL (   25413 calls)
     fft          :      3.41s CPU      1.73s WALL (     538 calls)
                                        0.02s GPU  (      48 calls)
     ffts         :      0.07s CPU      0.04s WALL (      78 calls)
     fftw         :      0.43s CPU     12.20s WALL (   70836 calls)
                                       11.08s GPU  (   70836 calls)
     interpolate  :      0.33s CPU      0.17s WALL (      40 calls)
 
     Parallel routines

     PAW routines
     PAW_pot      :      3.86s CPU      2.58s WALL (      20 calls)
     PAW_symme    :      0.01s CPU      0.01s WALL (      39 calls)
 
     PWSCF        :     90.83s CPU     86.42s WALL

 
   This run was terminated on:   2:57:52  27Feb2025            

=------------------------------------------------------------------------------=
   JOB DONE.
=------------------------------------------------------------------------------=
Warning: ieee_invalid is signaling
Warning: ieee_divide_by_zero is signaling
Warning: ieee_underflow is signaling
Warning: ieee_inexact is signaling
FORTRAN STOP
