
     Program PWSCF v.6.8 starts on 12Mar2025 at  3:23:25 

     This program is part of the open-source Quantum ESPRESSO suite
     for quantum simulation of materials; please cite
         "P. Giannozzi et al., J. Phys.:Condens. Matter 21 395502 (2009);
         "P. Giannozzi et al., J. Phys.:Condens. Matter 29 465901 (2017);
         "P. Giannozzi et al., J. Chem. Phys. 152 154105 (2020);
          URL http://www.quantum-espresso.org", 
     in publications or presentations arising from this work. More details at
     http://www.quantum-espresso.org/quote

     Parallel version (MPI & OpenMP), running on       2 processor cores
     Number of MPI processes:                 1
     Threads/MPI process:                     2

     MPI processes distributed on     1 nodes
     15504 MiB available memory on the printing compute node when the environment starts
 
     Reading input from fe/pwscf.in

     Current dimensions of program PWSCF are:
     Max number of different atomic species (ntypx) = 10
     Max number of k-points (npk) =  40000
     Max angular momentum in pseudopotentials (lmaxx) =  4
     file Fe.pbesol-spn-kjpaw_psl.0.2.1.UPF: wavefunction(s)  3D renormalized
     Found symmetry operation: I + ( -0.5000 -0.5000 -0.5000)
     This is a supercell, fractional translations are disabled
     Message from routine setup:
     using ibrav=0 with symmetry is DISCOURAGED, use correct ibrav instead

     Subspace diagonalization in iterative solution of the eigenvalue problem:
     a serial algorithm will be used

 
     G-vector sticks info
     --------------------
     sticks:   dense  smooth     PW     G-vecs:    dense   smooth      PW
     Sum        2509     845    253                94533    18277    3071
 
     Using Slab Decomposition
 


     bravais-lattice index     =            0
     lattice parameter (alat)  =       5.4046  a.u.
     unit-cell volume          =     157.8682 (a.u.)^3
     number of atoms/cell      =            2
     number of atomic types    =            1
     number of electrons       =        32.00
     number of Kohn-Sham states=           20
     kinetic-energy cutoff     =      90.0000  Ry
     charge density cutoff     =    1080.0000  Ry
     scf convergence threshold =      4.0E-10
     mixing beta               =       0.4000
     number of iterations used =            8  plain     mixing
     Exchange-correlation= SLA  PW   PSX  PSC
                           (   1   4  10   8   0   0   0)

     GPU acceleration is ACTIVE.
     GPU-aware MPI enabled


     GPU used by master process:

        Device Number: 0
        Device name: NVIDIA GeForce RTX 4090
        Compute capability : 89
        Ratio of single to double precision performance  : 64
        Memory Clock Rate (KHz): 10501000
        Memory Bus Width (bits): 384
        Peak Memory Bandwidth (GB/s): ******

     celldm(1)=   5.404617  celldm(2)=   0.000000  celldm(3)=   0.000000
     celldm(4)=   0.000000  celldm(5)=   0.000000  celldm(6)=   0.000000

     crystal axes: (cart. coord. in units of alat)
               a(1) = (   1.000000   0.000000   0.000000 )  
               a(2) = (   0.000000   1.000000   0.000000 )  
               a(3) = (   0.000000   0.000000   1.000000 )  

     reciprocal axes: (cart. coord. in units 2 pi/alat)
               b(1) = (  1.000000  0.000000  0.000000 )  
               b(2) = (  0.000000  1.000000  0.000000 )  
               b(3) = (  0.000000  0.000000  1.000000 )  


     PseudoPot. # 1 for Fe read from file:
     ./fe/pseudo/Fe.pbesol-spn-kjpaw_psl.0.2.1.UPF
     MD5 check sum: 4d7ec5aa2156491519a4322664fbbf52
     Pseudo is Projector augmented-wave + core cor, Zval = 16.0
     Generated using "atomic" code by A. Dal Corso  v.6.0 svn rev. 13079
     Shape of augmentation charge: PSQ
     Using radial grid of 1191 points,  6 beta functions with: 
                l(1) =   0
                l(2) =   0
                l(3) =   1
                l(4) =   1
                l(5) =   2
                l(6) =   2
     Q(r) pseudized with 0 coefficients 


     atomic species   valence    mass     pseudopotential
        Fe            16.00    55.84500     Fe( 1.00)

     Starting magnetic structure 
     atomic species   magnetization
        Fe           0.313

     48 Sym. Ops., with inversion, found


                                    s                        frac. trans.

      isym =  1     identity                                     

 cryst.   s( 1) = (     1          0          0      )
                  (     0          1          0      )
                  (     0          0          1      )

 cart.    s( 1) = (  1.0000000  0.0000000  0.0000000 )
                  (  0.0000000  1.0000000  0.0000000 )
                  (  0.0000000  0.0000000  1.0000000 )


      isym =  2     180 deg rotation - cart. axis [0,0,1]        

 cryst.   s( 2) = (    -1          0          0      )
                  (     0         -1          0      )
                  (     0          0          1      )

 cart.    s( 2) = ( -1.0000000  0.0000000  0.0000000 )
                  (  0.0000000 -1.0000000  0.0000000 )
                  (  0.0000000  0.0000000  1.0000000 )


      isym =  3     180 deg rotation - cart. axis [0,1,0]        

 cryst.   s( 3) = (    -1          0          0      )
                  (     0          1          0      )
                  (     0          0         -1      )

 cart.    s( 3) = ( -1.0000000  0.0000000  0.0000000 )
                  (  0.0000000  1.0000000  0.0000000 )
                  (  0.0000000  0.0000000 -1.0000000 )


      isym =  4     180 deg rotation - cart. axis [1,0,0]        

 cryst.   s( 4) = (     1          0          0      )
                  (     0         -1          0      )
                  (     0          0         -1      )

 cart.    s( 4) = (  1.0000000  0.0000000  0.0000000 )
                  (  0.0000000 -1.0000000  0.0000000 )
                  (  0.0000000  0.0000000 -1.0000000 )


      isym =  5     180 deg rotation - cart. axis [1,1,0]        

 cryst.   s( 5) = (     0          1          0      )
                  (     1          0          0      )
                  (     0          0         -1      )

 cart.    s( 5) = (  0.0000000  1.0000000  0.0000000 )
                  (  1.0000000  0.0000000  0.0000000 )
                  (  0.0000000  0.0000000 -1.0000000 )


      isym =  6     180 deg rotation - cart. axis [1,-1,0]       

 cryst.   s( 6) = (     0         -1          0      )
                  (    -1          0          0      )
                  (     0          0         -1      )

 cart.    s( 6) = (  0.0000000 -1.0000000  0.0000000 )
                  ( -1.0000000  0.0000000  0.0000000 )
                  (  0.0000000  0.0000000 -1.0000000 )


      isym =  7      90 deg rotation - cart. axis [0,0,-1]       

 cryst.   s( 7) = (     0         -1          0      )
                  (     1          0          0      )
                  (     0          0          1      )

 cart.    s( 7) = (  0.0000000  1.0000000  0.0000000 )
                  ( -1.0000000  0.0000000  0.0000000 )
                  (  0.0000000  0.0000000  1.0000000 )


      isym =  8      90 deg rotation - cart. axis [0,0,1]        

 cryst.   s( 8) = (     0          1          0      )
                  (    -1          0          0      )
                  (     0          0          1      )

 cart.    s( 8) = (  0.0000000 -1.0000000  0.0000000 )
                  (  1.0000000  0.0000000  0.0000000 )
                  (  0.0000000  0.0000000  1.0000000 )


      isym =  9     180 deg rotation - cart. axis [1,0,1]        

 cryst.   s( 9) = (     0          0          1      )
                  (     0         -1          0      )
                  (     1          0          0      )

 cart.    s( 9) = (  0.0000000  0.0000000  1.0000000 )
                  (  0.0000000 -1.0000000  0.0000000 )
                  (  1.0000000  0.0000000  0.0000000 )


      isym = 10     180 deg rotation - cart. axis [-1,0,1]       

 cryst.   s(10) = (     0          0         -1      )
                  (     0         -1          0      )
                  (    -1          0          0      )

 cart.    s(10) = (  0.0000000  0.0000000 -1.0000000 )
                  (  0.0000000 -1.0000000  0.0000000 )
                  ( -1.0000000  0.0000000  0.0000000 )


      isym = 11      90 deg rotation - cart. axis [0,1,0]        

 cryst.   s(11) = (     0          0         -1      )
                  (     0          1          0      )
                  (     1          0          0      )

 cart.    s(11) = (  0.0000000  0.0000000  1.0000000 )
                  (  0.0000000  1.0000000  0.0000000 )
                  ( -1.0000000  0.0000000  0.0000000 )


      isym = 12      90 deg rotation - cart. axis [0,-1,0]       

 cryst.   s(12) = (     0          0          1      )
                  (     0          1          0      )
                  (    -1          0          0      )

 cart.    s(12) = (  0.0000000  0.0000000 -1.0000000 )
                  (  0.0000000  1.0000000  0.0000000 )
                  (  1.0000000  0.0000000  0.0000000 )


      isym = 13     180 deg rotation - cart. axis [0,1,1]        

 cryst.   s(13) = (    -1          0          0      )
                  (     0          0          1      )
                  (     0          1          0      )

 cart.    s(13) = ( -1.0000000  0.0000000  0.0000000 )
                  (  0.0000000  0.0000000  1.0000000 )
                  (  0.0000000  1.0000000  0.0000000 )


      isym = 14     180 deg rotation - cart. axis [0,1,-1]       

 cryst.   s(14) = (    -1          0          0      )
                  (     0          0         -1      )
                  (     0         -1          0      )

 cart.    s(14) = ( -1.0000000  0.0000000  0.0000000 )
                  (  0.0000000  0.0000000 -1.0000000 )
                  (  0.0000000 -1.0000000  0.0000000 )


      isym = 15      90 deg rotation - cart. axis [-1,0,0]       

 cryst.   s(15) = (     1          0          0      )
                  (     0          0         -1      )
                  (     0          1          0      )

 cart.    s(15) = (  1.0000000  0.0000000  0.0000000 )
                  (  0.0000000  0.0000000  1.0000000 )
                  (  0.0000000 -1.0000000  0.0000000 )


      isym = 16      90 deg rotation - cart. axis [1,0,0]        

 cryst.   s(16) = (     1          0          0      )
                  (     0          0          1      )
                  (     0         -1          0      )

 cart.    s(16) = (  1.0000000  0.0000000  0.0000000 )
                  (  0.0000000  0.0000000 -1.0000000 )
                  (  0.0000000  1.0000000  0.0000000 )


      isym = 17     120 deg rotation - cart. axis [-1,-1,-1]     

 cryst.   s(17) = (     0          0          1      )
                  (     1          0          0      )
                  (     0          1          0      )

 cart.    s(17) = (  0.0000000  1.0000000  0.0000000 )
                  (  0.0000000  0.0000000  1.0000000 )
                  (  1.0000000  0.0000000  0.0000000 )


      isym = 18     120 deg rotation - cart. axis [-1,1,1]       

 cryst.   s(18) = (     0          0         -1      )
                  (    -1          0          0      )
                  (     0          1          0      )

 cart.    s(18) = (  0.0000000 -1.0000000  0.0000000 )
                  (  0.0000000  0.0000000  1.0000000 )
                  ( -1.0000000  0.0000000  0.0000000 )


      isym = 19     120 deg rotation - cart. axis [1,1,-1]       

 cryst.   s(19) = (     0          0         -1      )
                  (     1          0          0      )
                  (     0         -1          0      )

 cart.    s(19) = (  0.0000000  1.0000000  0.0000000 )
                  (  0.0000000  0.0000000 -1.0000000 )
                  ( -1.0000000  0.0000000  0.0000000 )


      isym = 20     120 deg rotation - cart. axis [1,-1,1]       

 cryst.   s(20) = (     0          0          1      )
                  (    -1          0          0      )
                  (     0         -1          0      )

 cart.    s(20) = (  0.0000000 -1.0000000  0.0000000 )
                  (  0.0000000  0.0000000 -1.0000000 )
                  (  1.0000000  0.0000000  0.0000000 )


      isym = 21     120 deg rotation - cart. axis [1,1,1]        

 cryst.   s(21) = (     0          1          0      )
                  (     0          0          1      )
                  (     1          0          0      )

 cart.    s(21) = (  0.0000000  0.0000000  1.0000000 )
                  (  1.0000000  0.0000000  0.0000000 )
                  (  0.0000000  1.0000000  0.0000000 )


      isym = 22     120 deg rotation - cart. axis [-1,1,-1]      

 cryst.   s(22) = (     0         -1          0      )
                  (     0          0         -1      )
                  (     1          0          0      )

 cart.    s(22) = (  0.0000000  0.0000000  1.0000000 )
                  ( -1.0000000  0.0000000  0.0000000 )
                  (  0.0000000 -1.0000000  0.0000000 )


      isym = 23     120 deg rotation - cart. axis [1,-1,-1]      

 cryst.   s(23) = (     0         -1          0      )
                  (     0          0          1      )
                  (    -1          0          0      )

 cart.    s(23) = (  0.0000000  0.0000000 -1.0000000 )
                  ( -1.0000000  0.0000000  0.0000000 )
                  (  0.0000000  1.0000000  0.0000000 )


      isym = 24     120 deg rotation - cart. axis [-1,-1,1]      

 cryst.   s(24) = (     0          1          0      )
                  (     0          0         -1      )
                  (    -1          0          0      )

 cart.    s(24) = (  0.0000000  0.0000000 -1.0000000 )
                  (  1.0000000  0.0000000  0.0000000 )
                  (  0.0000000 -1.0000000  0.0000000 )


      isym = 25     inversion                                    

 cryst.   s(25) = (    -1          0          0      )
                  (     0         -1          0      )
                  (     0          0         -1      )

 cart.    s(25) = ( -1.0000000  0.0000000  0.0000000 )
                  (  0.0000000 -1.0000000  0.0000000 )
                  (  0.0000000  0.0000000 -1.0000000 )


      isym = 26     inv. 180 deg rotation - cart. axis [0,0,1]   

 cryst.   s(26) = (     1          0          0      )
                  (     0          1          0      )
                  (     0          0         -1      )

 cart.    s(26) = (  1.0000000  0.0000000  0.0000000 )
                  (  0.0000000  1.0000000  0.0000000 )
                  (  0.0000000  0.0000000 -1.0000000 )


      isym = 27     inv. 180 deg rotation - cart. axis [0,1,0]   

 cryst.   s(27) = (     1          0          0      )
                  (     0         -1          0      )
                  (     0          0          1      )

 cart.    s(27) = (  1.0000000  0.0000000  0.0000000 )
                  (  0.0000000 -1.0000000  0.0000000 )
                  (  0.0000000  0.0000000  1.0000000 )


      isym = 28     inv. 180 deg rotation - cart. axis [1,0,0]   

 cryst.   s(28) = (    -1          0          0      )
                  (     0          1          0      )
                  (     0          0          1      )

 cart.    s(28) = ( -1.0000000  0.0000000  0.0000000 )
                  (  0.0000000  1.0000000  0.0000000 )
                  (  0.0000000  0.0000000  1.0000000 )


      isym = 29     inv. 180 deg rotation - cart. axis [1,1,0]   

 cryst.   s(29) = (     0         -1          0      )
                  (    -1          0          0      )
                  (     0          0          1      )

 cart.    s(29) = (  0.0000000 -1.0000000  0.0000000 )
                  ( -1.0000000  0.0000000  0.0000000 )
                  (  0.0000000  0.0000000  1.0000000 )


      isym = 30     inv. 180 deg rotation - cart. axis [1,-1,0]  

 cryst.   s(30) = (     0          1          0      )
                  (     1          0          0      )
                  (     0          0          1      )

 cart.    s(30) = (  0.0000000  1.0000000  0.0000000 )
                  (  1.0000000  0.0000000  0.0000000 )
                  (  0.0000000  0.0000000  1.0000000 )


      isym = 31     inv.  90 deg rotation - cart. axis [0,0,-1]  

 cryst.   s(31) = (     0          1          0      )
                  (    -1          0          0      )
                  (     0          0         -1      )

 cart.    s(31) = (  0.0000000 -1.0000000  0.0000000 )
                  (  1.0000000  0.0000000  0.0000000 )
                  (  0.0000000  0.0000000 -1.0000000 )


      isym = 32     inv.  90 deg rotation - cart. axis [0,0,1]   

 cryst.   s(32) = (     0         -1          0      )
                  (     1          0          0      )
                  (     0          0         -1      )

 cart.    s(32) = (  0.0000000  1.0000000  0.0000000 )
                  ( -1.0000000  0.0000000  0.0000000 )
                  (  0.0000000  0.0000000 -1.0000000 )


      isym = 33     inv. 180 deg rotation - cart. axis [1,0,1]   

 cryst.   s(33) = (     0          0         -1      )
                  (     0          1          0      )
                  (    -1          0          0      )

 cart.    s(33) = (  0.0000000  0.0000000 -1.0000000 )
                  (  0.0000000  1.0000000  0.0000000 )
                  ( -1.0000000  0.0000000  0.0000000 )


      isym = 34     inv. 180 deg rotation - cart. axis [-1,0,1]  

 cryst.   s(34) = (     0          0          1      )
                  (     0          1          0      )
                  (     1          0          0      )

 cart.    s(34) = (  0.0000000  0.0000000  1.0000000 )
                  (  0.0000000  1.0000000  0.0000000 )
                  (  1.0000000  0.0000000  0.0000000 )


      isym = 35     inv.  90 deg rotation - cart. axis [0,1,0]   

 cryst.   s(35) = (     0          0          1      )
                  (     0         -1          0      )
                  (    -1          0          0      )

 cart.    s(35) = (  0.0000000  0.0000000 -1.0000000 )
                  (  0.0000000 -1.0000000  0.0000000 )
                  (  1.0000000  0.0000000  0.0000000 )


      isym = 36     inv.  90 deg rotation - cart. axis [0,-1,0]  

 cryst.   s(36) = (     0          0         -1      )
                  (     0         -1          0      )
                  (     1          0          0      )

 cart.    s(36) = (  0.0000000  0.0000000  1.0000000 )
                  (  0.0000000 -1.0000000  0.0000000 )
                  ( -1.0000000  0.0000000  0.0000000 )


      isym = 37     inv. 180 deg rotation - cart. axis [0,1,1]   

 cryst.   s(37) = (     1          0          0      )
                  (     0          0         -1      )
                  (     0         -1          0      )

 cart.    s(37) = (  1.0000000  0.0000000  0.0000000 )
                  (  0.0000000  0.0000000 -1.0000000 )
                  (  0.0000000 -1.0000000  0.0000000 )


      isym = 38     inv. 180 deg rotation - cart. axis [0,1,-1]  

 cryst.   s(38) = (     1          0          0      )
                  (     0          0          1      )
                  (     0          1          0      )

 cart.    s(38) = (  1.0000000  0.0000000  0.0000000 )
                  (  0.0000000  0.0000000  1.0000000 )
                  (  0.0000000  1.0000000  0.0000000 )


      isym = 39     inv.  90 deg rotation - cart. axis [-1,0,0]  

 cryst.   s(39) = (    -1          0          0      )
                  (     0          0          1      )
                  (     0         -1          0      )

 cart.    s(39) = ( -1.0000000  0.0000000  0.0000000 )
                  (  0.0000000  0.0000000 -1.0000000 )
                  (  0.0000000  1.0000000  0.0000000 )


      isym = 40     inv.  90 deg rotation - cart. axis [1,0,0]   

 cryst.   s(40) = (    -1          0          0      )
                  (     0          0         -1      )
                  (     0          1          0      )

 cart.    s(40) = ( -1.0000000  0.0000000  0.0000000 )
                  (  0.0000000  0.0000000  1.0000000 )
                  (  0.0000000 -1.0000000  0.0000000 )


      isym = 41     inv. 120 deg rotation - cart. axis [-1,-1,-1]

 cryst.   s(41) = (     0          0         -1      )
                  (    -1          0          0      )
                  (     0         -1          0      )

 cart.    s(41) = (  0.0000000 -1.0000000  0.0000000 )
                  (  0.0000000  0.0000000 -1.0000000 )
                  ( -1.0000000  0.0000000  0.0000000 )


      isym = 42     inv. 120 deg rotation - cart. axis [-1,1,1]  

 cryst.   s(42) = (     0          0          1      )
                  (     1          0          0      )
                  (     0         -1          0      )

 cart.    s(42) = (  0.0000000  1.0000000  0.0000000 )
                  (  0.0000000  0.0000000 -1.0000000 )
                  (  1.0000000  0.0000000  0.0000000 )


      isym = 43     inv. 120 deg rotation - cart. axis [1,1,-1]  

 cryst.   s(43) = (     0          0          1      )
                  (    -1          0          0      )
                  (     0          1          0      )

 cart.    s(43) = (  0.0000000 -1.0000000  0.0000000 )
                  (  0.0000000  0.0000000  1.0000000 )
                  (  1.0000000  0.0000000  0.0000000 )


      isym = 44     inv. 120 deg rotation - cart. axis [1,-1,1]  

 cryst.   s(44) = (     0          0         -1      )
                  (     1          0          0      )
                  (     0          1          0      )

 cart.    s(44) = (  0.0000000  1.0000000  0.0000000 )
                  (  0.0000000  0.0000000  1.0000000 )
                  ( -1.0000000  0.0000000  0.0000000 )


      isym = 45     inv. 120 deg rotation - cart. axis [1,1,1]   

 cryst.   s(45) = (     0         -1          0      )
                  (     0          0         -1      )
                  (    -1          0          0      )

 cart.    s(45) = (  0.0000000  0.0000000 -1.0000000 )
                  ( -1.0000000  0.0000000  0.0000000 )
                  (  0.0000000 -1.0000000  0.0000000 )


      isym = 46     inv. 120 deg rotation - cart. axis [-1,1,-1] 

 cryst.   s(46) = (     0          1          0      )
                  (     0          0          1      )
                  (    -1          0          0      )

 cart.    s(46) = (  0.0000000  0.0000000 -1.0000000 )
                  (  1.0000000  0.0000000  0.0000000 )
                  (  0.0000000  1.0000000  0.0000000 )


      isym = 47     inv. 120 deg rotation - cart. axis [1,-1,-1] 

 cryst.   s(47) = (     0          1          0      )
                  (     0          0         -1      )
                  (     1          0          0      )

 cart.    s(47) = (  0.0000000  0.0000000  1.0000000 )
                  (  1.0000000  0.0000000  0.0000000 )
                  (  0.0000000 -1.0000000  0.0000000 )


      isym = 48     inv. 120 deg rotation - cart. axis [-1,-1,1] 

 cryst.   s(48) = (     0         -1          0      )
                  (     0          0          1      )
                  (     1          0          0      )

 cart.    s(48) = (  0.0000000  0.0000000  1.0000000 )
                  ( -1.0000000  0.0000000  0.0000000 )
                  (  0.0000000  1.0000000  0.0000000 )


   Cartesian axes

     site n.     atom                  positions (alat units)
         1           Fe  tau(   1) = (   0.0000000   0.0000000   0.0000000  )
         2           Fe  tau(   2) = (   0.5000000   0.5000000   0.5000000  )

   Crystallographic axes

     site n.     atom                  positions (cryst. coord.)
         1           Fe  tau(   1) = (  0.0000000  0.0000000  0.0000000  )
         2           Fe  tau(   2) = (  0.5000000  0.5000000  0.5000000  )

     number of k points=   364  Marzari-Vanderbilt smearing, width (Ry)=  0.0125
                       cart. coord. in units 2pi/alat
        k(    1) = (   0.0000000   0.0000000   0.0000000), wk =   0.0000939
        k(    2) = (   0.0000000   0.0000000   0.0454545), wk =   0.0005635
        k(    3) = (   0.0000000   0.0000000   0.0909091), wk =   0.0005635
        k(    4) = (   0.0000000   0.0000000   0.1363636), wk =   0.0005635
        k(    5) = (   0.0000000   0.0000000   0.1818182), wk =   0.0005635
        k(    6) = (   0.0000000   0.0000000   0.2272727), wk =   0.0005635
        k(    7) = (   0.0000000   0.0000000   0.2727273), wk =   0.0005635
        k(    8) = (   0.0000000   0.0000000   0.3181818), wk =   0.0005635
        k(    9) = (   0.0000000   0.0000000   0.3636364), wk =   0.0005635
        k(   10) = (   0.0000000   0.0000000   0.4090909), wk =   0.0005635
        k(   11) = (   0.0000000   0.0000000   0.4545455), wk =   0.0005635
        k(   12) = (   0.0000000   0.0000000  -0.5000000), wk =   0.0002817
        k(   13) = (   0.0000000   0.0454545   0.0454545), wk =   0.0011270
        k(   14) = (   0.0000000   0.0454545   0.0909091), wk =   0.0022539
        k(   15) = (   0.0000000   0.0454545   0.1363636), wk =   0.0022539
        k(   16) = (   0.0000000   0.0454545   0.1818182), wk =   0.0022539
        k(   17) = (   0.0000000   0.0454545   0.2272727), wk =   0.0022539
        k(   18) = (   0.0000000   0.0454545   0.2727273), wk =   0.0022539
        k(   19) = (   0.0000000   0.0454545   0.3181818), wk =   0.0022539
        k(   20) = (   0.0000000   0.0454545   0.3636364), wk =   0.0022539
        k(   21) = (   0.0000000   0.0454545   0.4090909), wk =   0.0022539
        k(   22) = (   0.0000000   0.0454545   0.4545455), wk =   0.0022539
        k(   23) = (   0.0000000   0.0454545  -0.5000000), wk =   0.0011270
        k(   24) = (   0.0000000   0.0909091   0.0909091), wk =   0.0011270
        k(   25) = (   0.0000000   0.0909091   0.1363636), wk =   0.0022539
        k(   26) = (   0.0000000   0.0909091   0.1818182), wk =   0.0022539
        k(   27) = (   0.0000000   0.0909091   0.2272727), wk =   0.0022539
        k(   28) = (   0.0000000   0.0909091   0.2727273), wk =   0.0022539
        k(   29) = (   0.0000000   0.0909091   0.3181818), wk =   0.0022539
        k(   30) = (   0.0000000   0.0909091   0.3636364), wk =   0.0022539
        k(   31) = (   0.0000000   0.0909091   0.4090909), wk =   0.0022539
        k(   32) = (   0.0000000   0.0909091   0.4545455), wk =   0.0022539
        k(   33) = (   0.0000000   0.0909091  -0.5000000), wk =   0.0011270
        k(   34) = (   0.0000000   0.1363636   0.1363636), wk =   0.0011270
        k(   35) = (   0.0000000   0.1363636   0.1818182), wk =   0.0022539
        k(   36) = (   0.0000000   0.1363636   0.2272727), wk =   0.0022539
        k(   37) = (   0.0000000   0.1363636   0.2727273), wk =   0.0022539
        k(   38) = (   0.0000000   0.1363636   0.3181818), wk =   0.0022539
        k(   39) = (   0.0000000   0.1363636   0.3636364), wk =   0.0022539
        k(   40) = (   0.0000000   0.1363636   0.4090909), wk =   0.0022539
        k(   41) = (   0.0000000   0.1363636   0.4545455), wk =   0.0022539
        k(   42) = (   0.0000000   0.1363636  -0.5000000), wk =   0.0011270
        k(   43) = (   0.0000000   0.1818182   0.1818182), wk =   0.0011270
        k(   44) = (   0.0000000   0.1818182   0.2272727), wk =   0.0022539
        k(   45) = (   0.0000000   0.1818182   0.2727273), wk =   0.0022539
        k(   46) = (   0.0000000   0.1818182   0.3181818), wk =   0.0022539
        k(   47) = (   0.0000000   0.1818182   0.3636364), wk =   0.0022539
        k(   48) = (   0.0000000   0.1818182   0.4090909), wk =   0.0022539
        k(   49) = (   0.0000000   0.1818182   0.4545455), wk =   0.0022539
        k(   50) = (   0.0000000   0.1818182  -0.5000000), wk =   0.0011270
        k(   51) = (   0.0000000   0.2272727   0.2272727), wk =   0.0011270
        k(   52) = (   0.0000000   0.2272727   0.2727273), wk =   0.0022539
        k(   53) = (   0.0000000   0.2272727   0.3181818), wk =   0.0022539
        k(   54) = (   0.0000000   0.2272727   0.3636364), wk =   0.0022539
        k(   55) = (   0.0000000   0.2272727   0.4090909), wk =   0.0022539
        k(   56) = (   0.0000000   0.2272727   0.4545455), wk =   0.0022539
        k(   57) = (   0.0000000   0.2272727  -0.5000000), wk =   0.0011270
        k(   58) = (   0.0000000   0.2727273   0.2727273), wk =   0.0011270
        k(   59) = (   0.0000000   0.2727273   0.3181818), wk =   0.0022539
        k(   60) = (   0.0000000   0.2727273   0.3636364), wk =   0.0022539
        k(   61) = (   0.0000000   0.2727273   0.4090909), wk =   0.0022539
        k(   62) = (   0.0000000   0.2727273   0.4545455), wk =   0.0022539
        k(   63) = (   0.0000000   0.2727273  -0.5000000), wk =   0.0011270
        k(   64) = (   0.0000000   0.3181818   0.3181818), wk =   0.0011270
        k(   65) = (   0.0000000   0.3181818   0.3636364), wk =   0.0022539
        k(   66) = (   0.0000000   0.3181818   0.4090909), wk =   0.0022539
        k(   67) = (   0.0000000   0.3181818   0.4545455), wk =   0.0022539
        k(   68) = (   0.0000000   0.3181818  -0.5000000), wk =   0.0011270
        k(   69) = (   0.0000000   0.3636364   0.3636364), wk =   0.0011270
        k(   70) = (   0.0000000   0.3636364   0.4090909), wk =   0.0022539
        k(   71) = (   0.0000000   0.3636364   0.4545455), wk =   0.0022539
        k(   72) = (   0.0000000   0.3636364  -0.5000000), wk =   0.0011270
        k(   73) = (   0.0000000   0.4090909   0.4090909), wk =   0.0011270
        k(   74) = (   0.0000000   0.4090909   0.4545455), wk =   0.0022539
        k(   75) = (   0.0000000   0.4090909  -0.5000000), wk =   0.0011270
        k(   76) = (   0.0000000   0.4545455   0.4545455), wk =   0.0011270
        k(   77) = (   0.0000000   0.4545455  -0.5000000), wk =   0.0011270
        k(   78) = (   0.0000000  -0.5000000  -0.5000000), wk =   0.0002817
        k(   79) = (   0.0454545   0.0454545   0.0454545), wk =   0.0007513
        k(   80) = (   0.0454545   0.0454545   0.0909091), wk =   0.0022539
        k(   81) = (   0.0454545   0.0454545   0.1363636), wk =   0.0022539
        k(   82) = (   0.0454545   0.0454545   0.1818182), wk =   0.0022539
        k(   83) = (   0.0454545   0.0454545   0.2272727), wk =   0.0022539
        k(   84) = (   0.0454545   0.0454545   0.2727273), wk =   0.0022539
        k(   85) = (   0.0454545   0.0454545   0.3181818), wk =   0.0022539
        k(   86) = (   0.0454545   0.0454545   0.3636364), wk =   0.0022539
        k(   87) = (   0.0454545   0.0454545   0.4090909), wk =   0.0022539
        k(   88) = (   0.0454545   0.0454545   0.4545455), wk =   0.0022539
        k(   89) = (   0.0454545   0.0454545  -0.5000000), wk =   0.0011270
        k(   90) = (   0.0454545   0.0909091   0.0909091), wk =   0.0022539
        k(   91) = (   0.0454545   0.0909091   0.1363636), wk =   0.0045079
        k(   92) = (   0.0454545   0.0909091   0.1818182), wk =   0.0045079
        k(   93) = (   0.0454545   0.0909091   0.2272727), wk =   0.0045079
        k(   94) = (   0.0454545   0.0909091   0.2727273), wk =   0.0045079
        k(   95) = (   0.0454545   0.0909091   0.3181818), wk =   0.0045079
        k(   96) = (   0.0454545   0.0909091   0.3636364), wk =   0.0045079
        k(   97) = (   0.0454545   0.0909091   0.4090909), wk =   0.0045079
        k(   98) = (   0.0454545   0.0909091   0.4545455), wk =   0.0045079
        k(   99) = (   0.0454545   0.0909091  -0.5000000), wk =   0.0022539
        k(  100) = (   0.0454545   0.1363636   0.1363636), wk =   0.0022539
        k(  101) = (   0.0454545   0.1363636   0.1818182), wk =   0.0045079
        k(  102) = (   0.0454545   0.1363636   0.2272727), wk =   0.0045079
        k(  103) = (   0.0454545   0.1363636   0.2727273), wk =   0.0045079
        k(  104) = (   0.0454545   0.1363636   0.3181818), wk =   0.0045079
        k(  105) = (   0.0454545   0.1363636   0.3636364), wk =   0.0045079
        k(  106) = (   0.0454545   0.1363636   0.4090909), wk =   0.0045079
        k(  107) = (   0.0454545   0.1363636   0.4545455), wk =   0.0045079
        k(  108) = (   0.0454545   0.1363636  -0.5000000), wk =   0.0022539
        k(  109) = (   0.0454545   0.1818182   0.1818182), wk =   0.0022539
        k(  110) = (   0.0454545   0.1818182   0.2272727), wk =   0.0045079
        k(  111) = (   0.0454545   0.1818182   0.2727273), wk =   0.0045079
        k(  112) = (   0.0454545   0.1818182   0.3181818), wk =   0.0045079
        k(  113) = (   0.0454545   0.1818182   0.3636364), wk =   0.0045079
        k(  114) = (   0.0454545   0.1818182   0.4090909), wk =   0.0045079
        k(  115) = (   0.0454545   0.1818182   0.4545455), wk =   0.0045079
        k(  116) = (   0.0454545   0.1818182  -0.5000000), wk =   0.0022539
        k(  117) = (   0.0454545   0.2272727   0.2272727), wk =   0.0022539
        k(  118) = (   0.0454545   0.2272727   0.2727273), wk =   0.0045079
        k(  119) = (   0.0454545   0.2272727   0.3181818), wk =   0.0045079
        k(  120) = (   0.0454545   0.2272727   0.3636364), wk =   0.0045079
        k(  121) = (   0.0454545   0.2272727   0.4090909), wk =   0.0045079
        k(  122) = (   0.0454545   0.2272727   0.4545455), wk =   0.0045079
        k(  123) = (   0.0454545   0.2272727  -0.5000000), wk =   0.0022539
        k(  124) = (   0.0454545   0.2727273   0.2727273), wk =   0.0022539
        k(  125) = (   0.0454545   0.2727273   0.3181818), wk =   0.0045079
        k(  126) = (   0.0454545   0.2727273   0.3636364), wk =   0.0045079
        k(  127) = (   0.0454545   0.2727273   0.4090909), wk =   0.0045079
        k(  128) = (   0.0454545   0.2727273   0.4545455), wk =   0.0045079
        k(  129) = (   0.0454545   0.2727273  -0.5000000), wk =   0.0022539
        k(  130) = (   0.0454545   0.3181818   0.3181818), wk =   0.0022539
        k(  131) = (   0.0454545   0.3181818   0.3636364), wk =   0.0045079
        k(  132) = (   0.0454545   0.3181818   0.4090909), wk =   0.0045079
        k(  133) = (   0.0454545   0.3181818   0.4545455), wk =   0.0045079
        k(  134) = (   0.0454545   0.3181818  -0.5000000), wk =   0.0022539
        k(  135) = (   0.0454545   0.3636364   0.3636364), wk =   0.0022539
        k(  136) = (   0.0454545   0.3636364   0.4090909), wk =   0.0045079
        k(  137) = (   0.0454545   0.3636364   0.4545455), wk =   0.0045079
        k(  138) = (   0.0454545   0.3636364  -0.5000000), wk =   0.0022539
        k(  139) = (   0.0454545   0.4090909   0.4090909), wk =   0.0022539
        k(  140) = (   0.0454545   0.4090909   0.4545455), wk =   0.0045079
        k(  141) = (   0.0454545   0.4090909  -0.5000000), wk =   0.0022539
        k(  142) = (   0.0454545   0.4545455   0.4545455), wk =   0.0022539
        k(  143) = (   0.0454545   0.4545455  -0.5000000), wk =   0.0022539
        k(  144) = (   0.0454545  -0.5000000  -0.5000000), wk =   0.0005635
        k(  145) = (   0.0909091   0.0909091   0.0909091), wk =   0.0007513
        k(  146) = (   0.0909091   0.0909091   0.1363636), wk =   0.0022539
        k(  147) = (   0.0909091   0.0909091   0.1818182), wk =   0.0022539
        k(  148) = (   0.0909091   0.0909091   0.2272727), wk =   0.0022539
        k(  149) = (   0.0909091   0.0909091   0.2727273), wk =   0.0022539
        k(  150) = (   0.0909091   0.0909091   0.3181818), wk =   0.0022539
        k(  151) = (   0.0909091   0.0909091   0.3636364), wk =   0.0022539
        k(  152) = (   0.0909091   0.0909091   0.4090909), wk =   0.0022539
        k(  153) = (   0.0909091   0.0909091   0.4545455), wk =   0.0022539
        k(  154) = (   0.0909091   0.0909091  -0.5000000), wk =   0.0011270
        k(  155) = (   0.0909091   0.1363636   0.1363636), wk =   0.0022539
        k(  156) = (   0.0909091   0.1363636   0.1818182), wk =   0.0045079
        k(  157) = (   0.0909091   0.1363636   0.2272727), wk =   0.0045079
        k(  158) = (   0.0909091   0.1363636   0.2727273), wk =   0.0045079
        k(  159) = (   0.0909091   0.1363636   0.3181818), wk =   0.0045079
        k(  160) = (   0.0909091   0.1363636   0.3636364), wk =   0.0045079
        k(  161) = (   0.0909091   0.1363636   0.4090909), wk =   0.0045079
        k(  162) = (   0.0909091   0.1363636   0.4545455), wk =   0.0045079
        k(  163) = (   0.0909091   0.1363636  -0.5000000), wk =   0.0022539
        k(  164) = (   0.0909091   0.1818182   0.1818182), wk =   0.0022539
        k(  165) = (   0.0909091   0.1818182   0.2272727), wk =   0.0045079
        k(  166) = (   0.0909091   0.1818182   0.2727273), wk =   0.0045079
        k(  167) = (   0.0909091   0.1818182   0.3181818), wk =   0.0045079
        k(  168) = (   0.0909091   0.1818182   0.3636364), wk =   0.0045079
        k(  169) = (   0.0909091   0.1818182   0.4090909), wk =   0.0045079
        k(  170) = (   0.0909091   0.1818182   0.4545455), wk =   0.0045079
        k(  171) = (   0.0909091   0.1818182  -0.5000000), wk =   0.0022539
        k(  172) = (   0.0909091   0.2272727   0.2272727), wk =   0.0022539
        k(  173) = (   0.0909091   0.2272727   0.2727273), wk =   0.0045079
        k(  174) = (   0.0909091   0.2272727   0.3181818), wk =   0.0045079
        k(  175) = (   0.0909091   0.2272727   0.3636364), wk =   0.0045079
        k(  176) = (   0.0909091   0.2272727   0.4090909), wk =   0.0045079
        k(  177) = (   0.0909091   0.2272727   0.4545455), wk =   0.0045079
        k(  178) = (   0.0909091   0.2272727  -0.5000000), wk =   0.0022539
        k(  179) = (   0.0909091   0.2727273   0.2727273), wk =   0.0022539
        k(  180) = (   0.0909091   0.2727273   0.3181818), wk =   0.0045079
        k(  181) = (   0.0909091   0.2727273   0.3636364), wk =   0.0045079
        k(  182) = (   0.0909091   0.2727273   0.4090909), wk =   0.0045079
        k(  183) = (   0.0909091   0.2727273   0.4545455), wk =   0.0045079
        k(  184) = (   0.0909091   0.2727273  -0.5000000), wk =   0.0022539
        k(  185) = (   0.0909091   0.3181818   0.3181818), wk =   0.0022539
        k(  186) = (   0.0909091   0.3181818   0.3636364), wk =   0.0045079
        k(  187) = (   0.0909091   0.3181818   0.4090909), wk =   0.0045079
        k(  188) = (   0.0909091   0.3181818   0.4545455), wk =   0.0045079
        k(  189) = (   0.0909091   0.3181818  -0.5000000), wk =   0.0022539
        k(  190) = (   0.0909091   0.3636364   0.3636364), wk =   0.0022539
        k(  191) = (   0.0909091   0.3636364   0.4090909), wk =   0.0045079
        k(  192) = (   0.0909091   0.3636364   0.4545455), wk =   0.0045079
        k(  193) = (   0.0909091   0.3636364  -0.5000000), wk =   0.0022539
        k(  194) = (   0.0909091   0.4090909   0.4090909), wk =   0.0022539
        k(  195) = (   0.0909091   0.4090909   0.4545455), wk =   0.0045079
        k(  196) = (   0.0909091   0.4090909  -0.5000000), wk =   0.0022539
        k(  197) = (   0.0909091   0.4545455   0.4545455), wk =   0.0022539
        k(  198) = (   0.0909091   0.4545455  -0.5000000), wk =   0.0022539
        k(  199) = (   0.0909091  -0.5000000  -0.5000000), wk =   0.0005635
        k(  200) = (   0.1363636   0.1363636   0.1363636), wk =   0.0007513
        k(  201) = (   0.1363636   0.1363636   0.1818182), wk =   0.0022539
        k(  202) = (   0.1363636   0.1363636   0.2272727), wk =   0.0022539
        k(  203) = (   0.1363636   0.1363636   0.2727273), wk =   0.0022539
        k(  204) = (   0.1363636   0.1363636   0.3181818), wk =   0.0022539
        k(  205) = (   0.1363636   0.1363636   0.3636364), wk =   0.0022539
        k(  206) = (   0.1363636   0.1363636   0.4090909), wk =   0.0022539
        k(  207) = (   0.1363636   0.1363636   0.4545455), wk =   0.0022539
        k(  208) = (   0.1363636   0.1363636  -0.5000000), wk =   0.0011270
        k(  209) = (   0.1363636   0.1818182   0.1818182), wk =   0.0022539
        k(  210) = (   0.1363636   0.1818182   0.2272727), wk =   0.0045079
        k(  211) = (   0.1363636   0.1818182   0.2727273), wk =   0.0045079
        k(  212) = (   0.1363636   0.1818182   0.3181818), wk =   0.0045079
        k(  213) = (   0.1363636   0.1818182   0.3636364), wk =   0.0045079
        k(  214) = (   0.1363636   0.1818182   0.4090909), wk =   0.0045079
        k(  215) = (   0.1363636   0.1818182   0.4545455), wk =   0.0045079
        k(  216) = (   0.1363636   0.1818182  -0.5000000), wk =   0.0022539
        k(  217) = (   0.1363636   0.2272727   0.2272727), wk =   0.0022539
        k(  218) = (   0.1363636   0.2272727   0.2727273), wk =   0.0045079
        k(  219) = (   0.1363636   0.2272727   0.3181818), wk =   0.0045079
        k(  220) = (   0.1363636   0.2272727   0.3636364), wk =   0.0045079
        k(  221) = (   0.1363636   0.2272727   0.4090909), wk =   0.0045079
        k(  222) = (   0.1363636   0.2272727   0.4545455), wk =   0.0045079
        k(  223) = (   0.1363636   0.2272727  -0.5000000), wk =   0.0022539
        k(  224) = (   0.1363636   0.2727273   0.2727273), wk =   0.0022539
        k(  225) = (   0.1363636   0.2727273   0.3181818), wk =   0.0045079
        k(  226) = (   0.1363636   0.2727273   0.3636364), wk =   0.0045079
        k(  227) = (   0.1363636   0.2727273   0.4090909), wk =   0.0045079
        k(  228) = (   0.1363636   0.2727273   0.4545455), wk =   0.0045079
        k(  229) = (   0.1363636   0.2727273  -0.5000000), wk =   0.0022539
        k(  230) = (   0.1363636   0.3181818   0.3181818), wk =   0.0022539
        k(  231) = (   0.1363636   0.3181818   0.3636364), wk =   0.0045079
        k(  232) = (   0.1363636   0.3181818   0.4090909), wk =   0.0045079
        k(  233) = (   0.1363636   0.3181818   0.4545455), wk =   0.0045079
        k(  234) = (   0.1363636   0.3181818  -0.5000000), wk =   0.0022539
        k(  235) = (   0.1363636   0.3636364   0.3636364), wk =   0.0022539
        k(  236) = (   0.1363636   0.3636364   0.4090909), wk =   0.0045079
        k(  237) = (   0.1363636   0.3636364   0.4545455), wk =   0.0045079
        k(  238) = (   0.1363636   0.3636364  -0.5000000), wk =   0.0022539
        k(  239) = (   0.1363636   0.4090909   0.4090909), wk =   0.0022539
        k(  240) = (   0.1363636   0.4090909   0.4545455), wk =   0.0045079
        k(  241) = (   0.1363636   0.4090909  -0.5000000), wk =   0.0022539
        k(  242) = (   0.1363636   0.4545455   0.4545455), wk =   0.0022539
        k(  243) = (   0.1363636   0.4545455  -0.5000000), wk =   0.0022539
        k(  244) = (   0.1363636  -0.5000000  -0.5000000), wk =   0.0005635
        k(  245) = (   0.1818182   0.1818182   0.1818182), wk =   0.0007513
        k(  246) = (   0.1818182   0.1818182   0.2272727), wk =   0.0022539
        k(  247) = (   0.1818182   0.1818182   0.2727273), wk =   0.0022539
        k(  248) = (   0.1818182   0.1818182   0.3181818), wk =   0.0022539
        k(  249) = (   0.1818182   0.1818182   0.3636364), wk =   0.0022539
        k(  250) = (   0.1818182   0.1818182   0.4090909), wk =   0.0022539
        k(  251) = (   0.1818182   0.1818182   0.4545455), wk =   0.0022539
        k(  252) = (   0.1818182   0.1818182  -0.5000000), wk =   0.0011270
        k(  253) = (   0.1818182   0.2272727   0.2272727), wk =   0.0022539
        k(  254) = (   0.1818182   0.2272727   0.2727273), wk =   0.0045079
        k(  255) = (   0.1818182   0.2272727   0.3181818), wk =   0.0045079
        k(  256) = (   0.1818182   0.2272727   0.3636364), wk =   0.0045079
        k(  257) = (   0.1818182   0.2272727   0.4090909), wk =   0.0045079
        k(  258) = (   0.1818182   0.2272727   0.4545455), wk =   0.0045079
        k(  259) = (   0.1818182   0.2272727  -0.5000000), wk =   0.0022539
        k(  260) = (   0.1818182   0.2727273   0.2727273), wk =   0.0022539
        k(  261) = (   0.1818182   0.2727273   0.3181818), wk =   0.0045079
        k(  262) = (   0.1818182   0.2727273   0.3636364), wk =   0.0045079
        k(  263) = (   0.1818182   0.2727273   0.4090909), wk =   0.0045079
        k(  264) = (   0.1818182   0.2727273   0.4545455), wk =   0.0045079
        k(  265) = (   0.1818182   0.2727273  -0.5000000), wk =   0.0022539
        k(  266) = (   0.1818182   0.3181818   0.3181818), wk =   0.0022539
        k(  267) = (   0.1818182   0.3181818   0.3636364), wk =   0.0045079
        k(  268) = (   0.1818182   0.3181818   0.4090909), wk =   0.0045079
        k(  269) = (   0.1818182   0.3181818   0.4545455), wk =   0.0045079
        k(  270) = (   0.1818182   0.3181818  -0.5000000), wk =   0.0022539
        k(  271) = (   0.1818182   0.3636364   0.3636364), wk =   0.0022539
        k(  272) = (   0.1818182   0.3636364   0.4090909), wk =   0.0045079
        k(  273) = (   0.1818182   0.3636364   0.4545455), wk =   0.0045079
        k(  274) = (   0.1818182   0.3636364  -0.5000000), wk =   0.0022539
        k(  275) = (   0.1818182   0.4090909   0.4090909), wk =   0.0022539
        k(  276) = (   0.1818182   0.4090909   0.4545455), wk =   0.0045079
        k(  277) = (   0.1818182   0.4090909  -0.5000000), wk =   0.0022539
        k(  278) = (   0.1818182   0.4545455   0.4545455), wk =   0.0022539
        k(  279) = (   0.1818182   0.4545455  -0.5000000), wk =   0.0022539
        k(  280) = (   0.1818182  -0.5000000  -0.5000000), wk =   0.0005635
        k(  281) = (   0.2272727   0.2272727   0.2272727), wk =   0.0007513
        k(  282) = (   0.2272727   0.2272727   0.2727273), wk =   0.0022539
        k(  283) = (   0.2272727   0.2272727   0.3181818), wk =   0.0022539
        k(  284) = (   0.2272727   0.2272727   0.3636364), wk =   0.0022539
        k(  285) = (   0.2272727   0.2272727   0.4090909), wk =   0.0022539
        k(  286) = (   0.2272727   0.2272727   0.4545455), wk =   0.0022539
        k(  287) = (   0.2272727   0.2272727  -0.5000000), wk =   0.0011270
        k(  288) = (   0.2272727   0.2727273   0.2727273), wk =   0.0022539
        k(  289) = (   0.2272727   0.2727273   0.3181818), wk =   0.0045079
        k(  290) = (   0.2272727   0.2727273   0.3636364), wk =   0.0045079
        k(  291) = (   0.2272727   0.2727273   0.4090909), wk =   0.0045079
        k(  292) = (   0.2272727   0.2727273   0.4545455), wk =   0.0045079
        k(  293) = (   0.2272727   0.2727273  -0.5000000), wk =   0.0022539
        k(  294) = (   0.2272727   0.3181818   0.3181818), wk =   0.0022539
        k(  295) = (   0.2272727   0.3181818   0.3636364), wk =   0.0045079
        k(  296) = (   0.2272727   0.3181818   0.4090909), wk =   0.0045079
        k(  297) = (   0.2272727   0.3181818   0.4545455), wk =   0.0045079
        k(  298) = (   0.2272727   0.3181818  -0.5000000), wk =   0.0022539
        k(  299) = (   0.2272727   0.3636364   0.3636364), wk =   0.0022539
        k(  300) = (   0.2272727   0.3636364   0.4090909), wk =   0.0045079
        k(  301) = (   0.2272727   0.3636364   0.4545455), wk =   0.0045079
        k(  302) = (   0.2272727   0.3636364  -0.5000000), wk =   0.0022539
        k(  303) = (   0.2272727   0.4090909   0.4090909), wk =   0.0022539
        k(  304) = (   0.2272727   0.4090909   0.4545455), wk =   0.0045079
        k(  305) = (   0.2272727   0.4090909  -0.5000000), wk =   0.0022539
        k(  306) = (   0.2272727   0.4545455   0.4545455), wk =   0.0022539
        k(  307) = (   0.2272727   0.4545455  -0.5000000), wk =   0.0022539
        k(  308) = (   0.2272727  -0.5000000  -0.5000000), wk =   0.0005635
        k(  309) = (   0.2727273   0.2727273   0.2727273), wk =   0.0007513
        k(  310) = (   0.2727273   0.2727273   0.3181818), wk =   0.0022539
        k(  311) = (   0.2727273   0.2727273   0.3636364), wk =   0.0022539
        k(  312) = (   0.2727273   0.2727273   0.4090909), wk =   0.0022539
        k(  313) = (   0.2727273   0.2727273   0.4545455), wk =   0.0022539
        k(  314) = (   0.2727273   0.2727273  -0.5000000), wk =   0.0011270
        k(  315) = (   0.2727273   0.3181818   0.3181818), wk =   0.0022539
        k(  316) = (   0.2727273   0.3181818   0.3636364), wk =   0.0045079
        k(  317) = (   0.2727273   0.3181818   0.4090909), wk =   0.0045079
        k(  318) = (   0.2727273   0.3181818   0.4545455), wk =   0.0045079
        k(  319) = (   0.2727273   0.3181818  -0.5000000), wk =   0.0022539
        k(  320) = (   0.2727273   0.3636364   0.3636364), wk =   0.0022539
        k(  321) = (   0.2727273   0.3636364   0.4090909), wk =   0.0045079
        k(  322) = (   0.2727273   0.3636364   0.4545455), wk =   0.0045079
        k(  323) = (   0.2727273   0.3636364  -0.5000000), wk =   0.0022539
        k(  324) = (   0.2727273   0.4090909   0.4090909), wk =   0.0022539
        k(  325) = (   0.2727273   0.4090909   0.4545455), wk =   0.0045079
        k(  326) = (   0.2727273   0.4090909  -0.5000000), wk =   0.0022539
        k(  327) = (   0.2727273   0.4545455   0.4545455), wk =   0.0022539
        k(  328) = (   0.2727273   0.4545455  -0.5000000), wk =   0.0022539
        k(  329) = (   0.2727273  -0.5000000  -0.5000000), wk =   0.0005635
        k(  330) = (   0.3181818   0.3181818   0.3181818), wk =   0.0007513
        k(  331) = (   0.3181818   0.3181818   0.3636364), wk =   0.0022539
        k(  332) = (   0.3181818   0.3181818   0.4090909), wk =   0.0022539
        k(  333) = (   0.3181818   0.3181818   0.4545455), wk =   0.0022539
        k(  334) = (   0.3181818   0.3181818  -0.5000000), wk =   0.0011270
        k(  335) = (   0.3181818   0.3636364   0.3636364), wk =   0.0022539
        k(  336) = (   0.3181818   0.3636364   0.4090909), wk =   0.0045079
        k(  337) = (   0.3181818   0.3636364   0.4545455), wk =   0.0045079
        k(  338) = (   0.3181818   0.3636364  -0.5000000), wk =   0.0022539
        k(  339) = (   0.3181818   0.4090909   0.4090909), wk =   0.0022539
        k(  340) = (   0.3181818   0.4090909   0.4545455), wk =   0.0045079
        k(  341) = (   0.3181818   0.4090909  -0.5000000), wk =   0.0022539
        k(  342) = (   0.3181818   0.4545455   0.4545455), wk =   0.0022539
        k(  343) = (   0.3181818   0.4545455  -0.5000000), wk =   0.0022539
        k(  344) = (   0.3181818  -0.5000000  -0.5000000), wk =   0.0005635
        k(  345) = (   0.3636364   0.3636364   0.3636364), wk =   0.0007513
        k(  346) = (   0.3636364   0.3636364   0.4090909), wk =   0.0022539
        k(  347) = (   0.3636364   0.3636364   0.4545455), wk =   0.0022539
        k(  348) = (   0.3636364   0.3636364  -0.5000000), wk =   0.0011270
        k(  349) = (   0.3636364   0.4090909   0.4090909), wk =   0.0022539
        k(  350) = (   0.3636364   0.4090909   0.4545455), wk =   0.0045079
        k(  351) = (   0.3636364   0.4090909  -0.5000000), wk =   0.0022539
        k(  352) = (   0.3636364   0.4545455   0.4545455), wk =   0.0022539
        k(  353) = (   0.3636364   0.4545455  -0.5000000), wk =   0.0022539
        k(  354) = (   0.3636364  -0.5000000  -0.5000000), wk =   0.0005635
        k(  355) = (   0.4090909   0.4090909   0.4090909), wk =   0.0007513
        k(  356) = (   0.4090909   0.4090909   0.4545455), wk =   0.0022539
        k(  357) = (   0.4090909   0.4090909  -0.5000000), wk =   0.0011270
        k(  358) = (   0.4090909   0.4545455   0.4545455), wk =   0.0022539
        k(  359) = (   0.4090909   0.4545455  -0.5000000), wk =   0.0022539
        k(  360) = (   0.4090909  -0.5000000  -0.5000000), wk =   0.0005635
        k(  361) = (   0.4545455   0.4545455   0.4545455), wk =   0.0007513
        k(  362) = (   0.4545455   0.4545455  -0.5000000), wk =   0.0011270
        k(  363) = (   0.4545455  -0.5000000  -0.5000000), wk =   0.0005635
        k(  364) = (  -0.5000000  -0.5000000  -0.5000000), wk =   0.0000939

                       cryst. coord.
        k(    1) = (   0.0000000   0.0000000   0.0000000), wk =   0.0000939
        k(    2) = (   0.0000000   0.0000000   0.0454545), wk =   0.0005635
        k(    3) = (   0.0000000   0.0000000   0.0909091), wk =   0.0005635
        k(    4) = (   0.0000000   0.0000000   0.1363636), wk =   0.0005635
        k(    5) = (   0.0000000   0.0000000   0.1818182), wk =   0.0005635
        k(    6) = (   0.0000000   0.0000000   0.2272727), wk =   0.0005635
        k(    7) = (   0.0000000   0.0000000   0.2727273), wk =   0.0005635
        k(    8) = (   0.0000000   0.0000000   0.3181818), wk =   0.0005635
        k(    9) = (   0.0000000   0.0000000   0.3636364), wk =   0.0005635
        k(   10) = (   0.0000000   0.0000000   0.4090909), wk =   0.0005635
        k(   11) = (   0.0000000   0.0000000   0.4545455), wk =   0.0005635
        k(   12) = (   0.0000000   0.0000000  -0.5000000), wk =   0.0002817
        k(   13) = (   0.0000000   0.0454545   0.0454545), wk =   0.0011270
        k(   14) = (   0.0000000   0.0454545   0.0909091), wk =   0.0022539
        k(   15) = (   0.0000000   0.0454545   0.1363636), wk =   0.0022539
        k(   16) = (   0.0000000   0.0454545   0.1818182), wk =   0.0022539
        k(   17) = (   0.0000000   0.0454545   0.2272727), wk =   0.0022539
        k(   18) = (   0.0000000   0.0454545   0.2727273), wk =   0.0022539
        k(   19) = (   0.0000000   0.0454545   0.3181818), wk =   0.0022539
        k(   20) = (   0.0000000   0.0454545   0.3636364), wk =   0.0022539
        k(   21) = (   0.0000000   0.0454545   0.4090909), wk =   0.0022539
        k(   22) = (   0.0000000   0.0454545   0.4545455), wk =   0.0022539
        k(   23) = (   0.0000000   0.0454545  -0.5000000), wk =   0.0011270
        k(   24) = (   0.0000000   0.0909091   0.0909091), wk =   0.0011270
        k(   25) = (   0.0000000   0.0909091   0.1363636), wk =   0.0022539
        k(   26) = (   0.0000000   0.0909091   0.1818182), wk =   0.0022539
        k(   27) = (   0.0000000   0.0909091   0.2272727), wk =   0.0022539
        k(   28) = (   0.0000000   0.0909091   0.2727273), wk =   0.0022539
        k(   29) = (   0.0000000   0.0909091   0.3181818), wk =   0.0022539
        k(   30) = (   0.0000000   0.0909091   0.3636364), wk =   0.0022539
        k(   31) = (   0.0000000   0.0909091   0.4090909), wk =   0.0022539
        k(   32) = (   0.0000000   0.0909091   0.4545455), wk =   0.0022539
        k(   33) = (   0.0000000   0.0909091  -0.5000000), wk =   0.0011270
        k(   34) = (   0.0000000   0.1363636   0.1363636), wk =   0.0011270
        k(   35) = (   0.0000000   0.1363636   0.1818182), wk =   0.0022539
        k(   36) = (   0.0000000   0.1363636   0.2272727), wk =   0.0022539
        k(   37) = (   0.0000000   0.1363636   0.2727273), wk =   0.0022539
        k(   38) = (   0.0000000   0.1363636   0.3181818), wk =   0.0022539
        k(   39) = (   0.0000000   0.1363636   0.3636364), wk =   0.0022539
        k(   40) = (   0.0000000   0.1363636   0.4090909), wk =   0.0022539
        k(   41) = (   0.0000000   0.1363636   0.4545455), wk =   0.0022539
        k(   42) = (   0.0000000   0.1363636  -0.5000000), wk =   0.0011270
        k(   43) = (   0.0000000   0.1818182   0.1818182), wk =   0.0011270
        k(   44) = (   0.0000000   0.1818182   0.2272727), wk =   0.0022539
        k(   45) = (   0.0000000   0.1818182   0.2727273), wk =   0.0022539
        k(   46) = (   0.0000000   0.1818182   0.3181818), wk =   0.0022539
        k(   47) = (   0.0000000   0.1818182   0.3636364), wk =   0.0022539
        k(   48) = (   0.0000000   0.1818182   0.4090909), wk =   0.0022539
        k(   49) = (   0.0000000   0.1818182   0.4545455), wk =   0.0022539
        k(   50) = (   0.0000000   0.1818182  -0.5000000), wk =   0.0011270
        k(   51) = (   0.0000000   0.2272727   0.2272727), wk =   0.0011270
        k(   52) = (   0.0000000   0.2272727   0.2727273), wk =   0.0022539
        k(   53) = (   0.0000000   0.2272727   0.3181818), wk =   0.0022539
        k(   54) = (   0.0000000   0.2272727   0.3636364), wk =   0.0022539
        k(   55) = (   0.0000000   0.2272727   0.4090909), wk =   0.0022539
        k(   56) = (   0.0000000   0.2272727   0.4545455), wk =   0.0022539
        k(   57) = (   0.0000000   0.2272727  -0.5000000), wk =   0.0011270
        k(   58) = (   0.0000000   0.2727273   0.2727273), wk =   0.0011270
        k(   59) = (   0.0000000   0.2727273   0.3181818), wk =   0.0022539
        k(   60) = (   0.0000000   0.2727273   0.3636364), wk =   0.0022539
        k(   61) = (   0.0000000   0.2727273   0.4090909), wk =   0.0022539
        k(   62) = (   0.0000000   0.2727273   0.4545455), wk =   0.0022539
        k(   63) = (   0.0000000   0.2727273  -0.5000000), wk =   0.0011270
        k(   64) = (   0.0000000   0.3181818   0.3181818), wk =   0.0011270
        k(   65) = (   0.0000000   0.3181818   0.3636364), wk =   0.0022539
        k(   66) = (   0.0000000   0.3181818   0.4090909), wk =   0.0022539
        k(   67) = (   0.0000000   0.3181818   0.4545455), wk =   0.0022539
        k(   68) = (   0.0000000   0.3181818  -0.5000000), wk =   0.0011270
        k(   69) = (   0.0000000   0.3636364   0.3636364), wk =   0.0011270
        k(   70) = (   0.0000000   0.3636364   0.4090909), wk =   0.0022539
        k(   71) = (   0.0000000   0.3636364   0.4545455), wk =   0.0022539
        k(   72) = (   0.0000000   0.3636364  -0.5000000), wk =   0.0011270
        k(   73) = (   0.0000000   0.4090909   0.4090909), wk =   0.0011270
        k(   74) = (   0.0000000   0.4090909   0.4545455), wk =   0.0022539
        k(   75) = (   0.0000000   0.4090909  -0.5000000), wk =   0.0011270
        k(   76) = (   0.0000000   0.4545455   0.4545455), wk =   0.0011270
        k(   77) = (   0.0000000   0.4545455  -0.5000000), wk =   0.0011270
        k(   78) = (   0.0000000  -0.5000000  -0.5000000), wk =   0.0002817
        k(   79) = (   0.0454545   0.0454545   0.0454545), wk =   0.0007513
        k(   80) = (   0.0454545   0.0454545   0.0909091), wk =   0.0022539
        k(   81) = (   0.0454545   0.0454545   0.1363636), wk =   0.0022539
        k(   82) = (   0.0454545   0.0454545   0.1818182), wk =   0.0022539
        k(   83) = (   0.0454545   0.0454545   0.2272727), wk =   0.0022539
        k(   84) = (   0.0454545   0.0454545   0.2727273), wk =   0.0022539
        k(   85) = (   0.0454545   0.0454545   0.3181818), wk =   0.0022539
        k(   86) = (   0.0454545   0.0454545   0.3636364), wk =   0.0022539
        k(   87) = (   0.0454545   0.0454545   0.4090909), wk =   0.0022539
        k(   88) = (   0.0454545   0.0454545   0.4545455), wk =   0.0022539
        k(   89) = (   0.0454545   0.0454545  -0.5000000), wk =   0.0011270
        k(   90) = (   0.0454545   0.0909091   0.0909091), wk =   0.0022539
        k(   91) = (   0.0454545   0.0909091   0.1363636), wk =   0.0045079
        k(   92) = (   0.0454545   0.0909091   0.1818182), wk =   0.0045079
        k(   93) = (   0.0454545   0.0909091   0.2272727), wk =   0.0045079
        k(   94) = (   0.0454545   0.0909091   0.2727273), wk =   0.0045079
        k(   95) = (   0.0454545   0.0909091   0.3181818), wk =   0.0045079
        k(   96) = (   0.0454545   0.0909091   0.3636364), wk =   0.0045079
        k(   97) = (   0.0454545   0.0909091   0.4090909), wk =   0.0045079
        k(   98) = (   0.0454545   0.0909091   0.4545455), wk =   0.0045079
        k(   99) = (   0.0454545   0.0909091  -0.5000000), wk =   0.0022539
        k(  100) = (   0.0454545   0.1363636   0.1363636), wk =   0.0022539
        k(  101) = (   0.0454545   0.1363636   0.1818182), wk =   0.0045079
        k(  102) = (   0.0454545   0.1363636   0.2272727), wk =   0.0045079
        k(  103) = (   0.0454545   0.1363636   0.2727273), wk =   0.0045079
        k(  104) = (   0.0454545   0.1363636   0.3181818), wk =   0.0045079
        k(  105) = (   0.0454545   0.1363636   0.3636364), wk =   0.0045079
        k(  106) = (   0.0454545   0.1363636   0.4090909), wk =   0.0045079
        k(  107) = (   0.0454545   0.1363636   0.4545455), wk =   0.0045079
        k(  108) = (   0.0454545   0.1363636  -0.5000000), wk =   0.0022539
        k(  109) = (   0.0454545   0.1818182   0.1818182), wk =   0.0022539
        k(  110) = (   0.0454545   0.1818182   0.2272727), wk =   0.0045079
        k(  111) = (   0.0454545   0.1818182   0.2727273), wk =   0.0045079
        k(  112) = (   0.0454545   0.1818182   0.3181818), wk =   0.0045079
        k(  113) = (   0.0454545   0.1818182   0.3636364), wk =   0.0045079
        k(  114) = (   0.0454545   0.1818182   0.4090909), wk =   0.0045079
        k(  115) = (   0.0454545   0.1818182   0.4545455), wk =   0.0045079
        k(  116) = (   0.0454545   0.1818182  -0.5000000), wk =   0.0022539
        k(  117) = (   0.0454545   0.2272727   0.2272727), wk =   0.0022539
        k(  118) = (   0.0454545   0.2272727   0.2727273), wk =   0.0045079
        k(  119) = (   0.0454545   0.2272727   0.3181818), wk =   0.0045079
        k(  120) = (   0.0454545   0.2272727   0.3636364), wk =   0.0045079
        k(  121) = (   0.0454545   0.2272727   0.4090909), wk =   0.0045079
        k(  122) = (   0.0454545   0.2272727   0.4545455), wk =   0.0045079
        k(  123) = (   0.0454545   0.2272727  -0.5000000), wk =   0.0022539
        k(  124) = (   0.0454545   0.2727273   0.2727273), wk =   0.0022539
        k(  125) = (   0.0454545   0.2727273   0.3181818), wk =   0.0045079
        k(  126) = (   0.0454545   0.2727273   0.3636364), wk =   0.0045079
        k(  127) = (   0.0454545   0.2727273   0.4090909), wk =   0.0045079
        k(  128) = (   0.0454545   0.2727273   0.4545455), wk =   0.0045079
        k(  129) = (   0.0454545   0.2727273  -0.5000000), wk =   0.0022539
        k(  130) = (   0.0454545   0.3181818   0.3181818), wk =   0.0022539
        k(  131) = (   0.0454545   0.3181818   0.3636364), wk =   0.0045079
        k(  132) = (   0.0454545   0.3181818   0.4090909), wk =   0.0045079
        k(  133) = (   0.0454545   0.3181818   0.4545455), wk =   0.0045079
        k(  134) = (   0.0454545   0.3181818  -0.5000000), wk =   0.0022539
        k(  135) = (   0.0454545   0.3636364   0.3636364), wk =   0.0022539
        k(  136) = (   0.0454545   0.3636364   0.4090909), wk =   0.0045079
        k(  137) = (   0.0454545   0.3636364   0.4545455), wk =   0.0045079
        k(  138) = (   0.0454545   0.3636364  -0.5000000), wk =   0.0022539
        k(  139) = (   0.0454545   0.4090909   0.4090909), wk =   0.0022539
        k(  140) = (   0.0454545   0.4090909   0.4545455), wk =   0.0045079
        k(  141) = (   0.0454545   0.4090909  -0.5000000), wk =   0.0022539
        k(  142) = (   0.0454545   0.4545455   0.4545455), wk =   0.0022539
        k(  143) = (   0.0454545   0.4545455  -0.5000000), wk =   0.0022539
        k(  144) = (   0.0454545  -0.5000000  -0.5000000), wk =   0.0005635
        k(  145) = (   0.0909091   0.0909091   0.0909091), wk =   0.0007513
        k(  146) = (   0.0909091   0.0909091   0.1363636), wk =   0.0022539
        k(  147) = (   0.0909091   0.0909091   0.1818182), wk =   0.0022539
        k(  148) = (   0.0909091   0.0909091   0.2272727), wk =   0.0022539
        k(  149) = (   0.0909091   0.0909091   0.2727273), wk =   0.0022539
        k(  150) = (   0.0909091   0.0909091   0.3181818), wk =   0.0022539
        k(  151) = (   0.0909091   0.0909091   0.3636364), wk =   0.0022539
        k(  152) = (   0.0909091   0.0909091   0.4090909), wk =   0.0022539
        k(  153) = (   0.0909091   0.0909091   0.4545455), wk =   0.0022539
        k(  154) = (   0.0909091   0.0909091  -0.5000000), wk =   0.0011270
        k(  155) = (   0.0909091   0.1363636   0.1363636), wk =   0.0022539
        k(  156) = (   0.0909091   0.1363636   0.1818182), wk =   0.0045079
        k(  157) = (   0.0909091   0.1363636   0.2272727), wk =   0.0045079
        k(  158) = (   0.0909091   0.1363636   0.2727273), wk =   0.0045079
        k(  159) = (   0.0909091   0.1363636   0.3181818), wk =   0.0045079
        k(  160) = (   0.0909091   0.1363636   0.3636364), wk =   0.0045079
        k(  161) = (   0.0909091   0.1363636   0.4090909), wk =   0.0045079
        k(  162) = (   0.0909091   0.1363636   0.4545455), wk =   0.0045079
        k(  163) = (   0.0909091   0.1363636  -0.5000000), wk =   0.0022539
        k(  164) = (   0.0909091   0.1818182   0.1818182), wk =   0.0022539
        k(  165) = (   0.0909091   0.1818182   0.2272727), wk =   0.0045079
        k(  166) = (   0.0909091   0.1818182   0.2727273), wk =   0.0045079
        k(  167) = (   0.0909091   0.1818182   0.3181818), wk =   0.0045079
        k(  168) = (   0.0909091   0.1818182   0.3636364), wk =   0.0045079
        k(  169) = (   0.0909091   0.1818182   0.4090909), wk =   0.0045079
        k(  170) = (   0.0909091   0.1818182   0.4545455), wk =   0.0045079
        k(  171) = (   0.0909091   0.1818182  -0.5000000), wk =   0.0022539
        k(  172) = (   0.0909091   0.2272727   0.2272727), wk =   0.0022539
        k(  173) = (   0.0909091   0.2272727   0.2727273), wk =   0.0045079
        k(  174) = (   0.0909091   0.2272727   0.3181818), wk =   0.0045079
        k(  175) = (   0.0909091   0.2272727   0.3636364), wk =   0.0045079
        k(  176) = (   0.0909091   0.2272727   0.4090909), wk =   0.0045079
        k(  177) = (   0.0909091   0.2272727   0.4545455), wk =   0.0045079
        k(  178) = (   0.0909091   0.2272727  -0.5000000), wk =   0.0022539
        k(  179) = (   0.0909091   0.2727273   0.2727273), wk =   0.0022539
        k(  180) = (   0.0909091   0.2727273   0.3181818), wk =   0.0045079
        k(  181) = (   0.0909091   0.2727273   0.3636364), wk =   0.0045079
        k(  182) = (   0.0909091   0.2727273   0.4090909), wk =   0.0045079
        k(  183) = (   0.0909091   0.2727273   0.4545455), wk =   0.0045079
        k(  184) = (   0.0909091   0.2727273  -0.5000000), wk =   0.0022539
        k(  185) = (   0.0909091   0.3181818   0.3181818), wk =   0.0022539
        k(  186) = (   0.0909091   0.3181818   0.3636364), wk =   0.0045079
        k(  187) = (   0.0909091   0.3181818   0.4090909), wk =   0.0045079
        k(  188) = (   0.0909091   0.3181818   0.4545455), wk =   0.0045079
        k(  189) = (   0.0909091   0.3181818  -0.5000000), wk =   0.0022539
        k(  190) = (   0.0909091   0.3636364   0.3636364), wk =   0.0022539
        k(  191) = (   0.0909091   0.3636364   0.4090909), wk =   0.0045079
        k(  192) = (   0.0909091   0.3636364   0.4545455), wk =   0.0045079
        k(  193) = (   0.0909091   0.3636364  -0.5000000), wk =   0.0022539
        k(  194) = (   0.0909091   0.4090909   0.4090909), wk =   0.0022539
        k(  195) = (   0.0909091   0.4090909   0.4545455), wk =   0.0045079
        k(  196) = (   0.0909091   0.4090909  -0.5000000), wk =   0.0022539
        k(  197) = (   0.0909091   0.4545455   0.4545455), wk =   0.0022539
        k(  198) = (   0.0909091   0.4545455  -0.5000000), wk =   0.0022539
        k(  199) = (   0.0909091  -0.5000000  -0.5000000), wk =   0.0005635
        k(  200) = (   0.1363636   0.1363636   0.1363636), wk =   0.0007513
        k(  201) = (   0.1363636   0.1363636   0.1818182), wk =   0.0022539
        k(  202) = (   0.1363636   0.1363636   0.2272727), wk =   0.0022539
        k(  203) = (   0.1363636   0.1363636   0.2727273), wk =   0.0022539
        k(  204) = (   0.1363636   0.1363636   0.3181818), wk =   0.0022539
        k(  205) = (   0.1363636   0.1363636   0.3636364), wk =   0.0022539
        k(  206) = (   0.1363636   0.1363636   0.4090909), wk =   0.0022539
        k(  207) = (   0.1363636   0.1363636   0.4545455), wk =   0.0022539
        k(  208) = (   0.1363636   0.1363636  -0.5000000), wk =   0.0011270
        k(  209) = (   0.1363636   0.1818182   0.1818182), wk =   0.0022539
        k(  210) = (   0.1363636   0.1818182   0.2272727), wk =   0.0045079
        k(  211) = (   0.1363636   0.1818182   0.2727273), wk =   0.0045079
        k(  212) = (   0.1363636   0.1818182   0.3181818), wk =   0.0045079
        k(  213) = (   0.1363636   0.1818182   0.3636364), wk =   0.0045079
        k(  214) = (   0.1363636   0.1818182   0.4090909), wk =   0.0045079
        k(  215) = (   0.1363636   0.1818182   0.4545455), wk =   0.0045079
        k(  216) = (   0.1363636   0.1818182  -0.5000000), wk =   0.0022539
        k(  217) = (   0.1363636   0.2272727   0.2272727), wk =   0.0022539
        k(  218) = (   0.1363636   0.2272727   0.2727273), wk =   0.0045079
        k(  219) = (   0.1363636   0.2272727   0.3181818), wk =   0.0045079
        k(  220) = (   0.1363636   0.2272727   0.3636364), wk =   0.0045079
        k(  221) = (   0.1363636   0.2272727   0.4090909), wk =   0.0045079
        k(  222) = (   0.1363636   0.2272727   0.4545455), wk =   0.0045079
        k(  223) = (   0.1363636   0.2272727  -0.5000000), wk =   0.0022539
        k(  224) = (   0.1363636   0.2727273   0.2727273), wk =   0.0022539
        k(  225) = (   0.1363636   0.2727273   0.3181818), wk =   0.0045079
        k(  226) = (   0.1363636   0.2727273   0.3636364), wk =   0.0045079
        k(  227) = (   0.1363636   0.2727273   0.4090909), wk =   0.0045079
        k(  228) = (   0.1363636   0.2727273   0.4545455), wk =   0.0045079
        k(  229) = (   0.1363636   0.2727273  -0.5000000), wk =   0.0022539
        k(  230) = (   0.1363636   0.3181818   0.3181818), wk =   0.0022539
        k(  231) = (   0.1363636   0.3181818   0.3636364), wk =   0.0045079
        k(  232) = (   0.1363636   0.3181818   0.4090909), wk =   0.0045079
        k(  233) = (   0.1363636   0.3181818   0.4545455), wk =   0.0045079
        k(  234) = (   0.1363636   0.3181818  -0.5000000), wk =   0.0022539
        k(  235) = (   0.1363636   0.3636364   0.3636364), wk =   0.0022539
        k(  236) = (   0.1363636   0.3636364   0.4090909), wk =   0.0045079
        k(  237) = (   0.1363636   0.3636364   0.4545455), wk =   0.0045079
        k(  238) = (   0.1363636   0.3636364  -0.5000000), wk =   0.0022539
        k(  239) = (   0.1363636   0.4090909   0.4090909), wk =   0.0022539
        k(  240) = (   0.1363636   0.4090909   0.4545455), wk =   0.0045079
        k(  241) = (   0.1363636   0.4090909  -0.5000000), wk =   0.0022539
        k(  242) = (   0.1363636   0.4545455   0.4545455), wk =   0.0022539
        k(  243) = (   0.1363636   0.4545455  -0.5000000), wk =   0.0022539
        k(  244) = (   0.1363636  -0.5000000  -0.5000000), wk =   0.0005635
        k(  245) = (   0.1818182   0.1818182   0.1818182), wk =   0.0007513
        k(  246) = (   0.1818182   0.1818182   0.2272727), wk =   0.0022539
        k(  247) = (   0.1818182   0.1818182   0.2727273), wk =   0.0022539
        k(  248) = (   0.1818182   0.1818182   0.3181818), wk =   0.0022539
        k(  249) = (   0.1818182   0.1818182   0.3636364), wk =   0.0022539
        k(  250) = (   0.1818182   0.1818182   0.4090909), wk =   0.0022539
        k(  251) = (   0.1818182   0.1818182   0.4545455), wk =   0.0022539
        k(  252) = (   0.1818182   0.1818182  -0.5000000), wk =   0.0011270
        k(  253) = (   0.1818182   0.2272727   0.2272727), wk =   0.0022539
        k(  254) = (   0.1818182   0.2272727   0.2727273), wk =   0.0045079
        k(  255) = (   0.1818182   0.2272727   0.3181818), wk =   0.0045079
        k(  256) = (   0.1818182   0.2272727   0.3636364), wk =   0.0045079
        k(  257) = (   0.1818182   0.2272727   0.4090909), wk =   0.0045079
        k(  258) = (   0.1818182   0.2272727   0.4545455), wk =   0.0045079
        k(  259) = (   0.1818182   0.2272727  -0.5000000), wk =   0.0022539
        k(  260) = (   0.1818182   0.2727273   0.2727273), wk =   0.0022539
        k(  261) = (   0.1818182   0.2727273   0.3181818), wk =   0.0045079
        k(  262) = (   0.1818182   0.2727273   0.3636364), wk =   0.0045079
        k(  263) = (   0.1818182   0.2727273   0.4090909), wk =   0.0045079
        k(  264) = (   0.1818182   0.2727273   0.4545455), wk =   0.0045079
        k(  265) = (   0.1818182   0.2727273  -0.5000000), wk =   0.0022539
        k(  266) = (   0.1818182   0.3181818   0.3181818), wk =   0.0022539
        k(  267) = (   0.1818182   0.3181818   0.3636364), wk =   0.0045079
        k(  268) = (   0.1818182   0.3181818   0.4090909), wk =   0.0045079
        k(  269) = (   0.1818182   0.3181818   0.4545455), wk =   0.0045079
        k(  270) = (   0.1818182   0.3181818  -0.5000000), wk =   0.0022539
        k(  271) = (   0.1818182   0.3636364   0.3636364), wk =   0.0022539
        k(  272) = (   0.1818182   0.3636364   0.4090909), wk =   0.0045079
        k(  273) = (   0.1818182   0.3636364   0.4545455), wk =   0.0045079
        k(  274) = (   0.1818182   0.3636364  -0.5000000), wk =   0.0022539
        k(  275) = (   0.1818182   0.4090909   0.4090909), wk =   0.0022539
        k(  276) = (   0.1818182   0.4090909   0.4545455), wk =   0.0045079
        k(  277) = (   0.1818182   0.4090909  -0.5000000), wk =   0.0022539
        k(  278) = (   0.1818182   0.4545455   0.4545455), wk =   0.0022539
        k(  279) = (   0.1818182   0.4545455  -0.5000000), wk =   0.0022539
        k(  280) = (   0.1818182  -0.5000000  -0.5000000), wk =   0.0005635
        k(  281) = (   0.2272727   0.2272727   0.2272727), wk =   0.0007513
        k(  282) = (   0.2272727   0.2272727   0.2727273), wk =   0.0022539
        k(  283) = (   0.2272727   0.2272727   0.3181818), wk =   0.0022539
        k(  284) = (   0.2272727   0.2272727   0.3636364), wk =   0.0022539
        k(  285) = (   0.2272727   0.2272727   0.4090909), wk =   0.0022539
        k(  286) = (   0.2272727   0.2272727   0.4545455), wk =   0.0022539
        k(  287) = (   0.2272727   0.2272727  -0.5000000), wk =   0.0011270
        k(  288) = (   0.2272727   0.2727273   0.2727273), wk =   0.0022539
        k(  289) = (   0.2272727   0.2727273   0.3181818), wk =   0.0045079
        k(  290) = (   0.2272727   0.2727273   0.3636364), wk =   0.0045079
        k(  291) = (   0.2272727   0.2727273   0.4090909), wk =   0.0045079
        k(  292) = (   0.2272727   0.2727273   0.4545455), wk =   0.0045079
        k(  293) = (   0.2272727   0.2727273  -0.5000000), wk =   0.0022539
        k(  294) = (   0.2272727   0.3181818   0.3181818), wk =   0.0022539
        k(  295) = (   0.2272727   0.3181818   0.3636364), wk =   0.0045079
        k(  296) = (   0.2272727   0.3181818   0.4090909), wk =   0.0045079
        k(  297) = (   0.2272727   0.3181818   0.4545455), wk =   0.0045079
        k(  298) = (   0.2272727   0.3181818  -0.5000000), wk =   0.0022539
        k(  299) = (   0.2272727   0.3636364   0.3636364), wk =   0.0022539
        k(  300) = (   0.2272727   0.3636364   0.4090909), wk =   0.0045079
        k(  301) = (   0.2272727   0.3636364   0.4545455), wk =   0.0045079
        k(  302) = (   0.2272727   0.3636364  -0.5000000), wk =   0.0022539
        k(  303) = (   0.2272727   0.4090909   0.4090909), wk =   0.0022539
        k(  304) = (   0.2272727   0.4090909   0.4545455), wk =   0.0045079
        k(  305) = (   0.2272727   0.4090909  -0.5000000), wk =   0.0022539
        k(  306) = (   0.2272727   0.4545455   0.4545455), wk =   0.0022539
        k(  307) = (   0.2272727   0.4545455  -0.5000000), wk =   0.0022539
        k(  308) = (   0.2272727  -0.5000000  -0.5000000), wk =   0.0005635
        k(  309) = (   0.2727273   0.2727273   0.2727273), wk =   0.0007513
        k(  310) = (   0.2727273   0.2727273   0.3181818), wk =   0.0022539
        k(  311) = (   0.2727273   0.2727273   0.3636364), wk =   0.0022539
        k(  312) = (   0.2727273   0.2727273   0.4090909), wk =   0.0022539
        k(  313) = (   0.2727273   0.2727273   0.4545455), wk =   0.0022539
        k(  314) = (   0.2727273   0.2727273  -0.5000000), wk =   0.0011270
        k(  315) = (   0.2727273   0.3181818   0.3181818), wk =   0.0022539
        k(  316) = (   0.2727273   0.3181818   0.3636364), wk =   0.0045079
        k(  317) = (   0.2727273   0.3181818   0.4090909), wk =   0.0045079
        k(  318) = (   0.2727273   0.3181818   0.4545455), wk =   0.0045079
        k(  319) = (   0.2727273   0.3181818  -0.5000000), wk =   0.0022539
        k(  320) = (   0.2727273   0.3636364   0.3636364), wk =   0.0022539
        k(  321) = (   0.2727273   0.3636364   0.4090909), wk =   0.0045079
        k(  322) = (   0.2727273   0.3636364   0.4545455), wk =   0.0045079
        k(  323) = (   0.2727273   0.3636364  -0.5000000), wk =   0.0022539
        k(  324) = (   0.2727273   0.4090909   0.4090909), wk =   0.0022539
        k(  325) = (   0.2727273   0.4090909   0.4545455), wk =   0.0045079
        k(  326) = (   0.2727273   0.4090909  -0.5000000), wk =   0.0022539
        k(  327) = (   0.2727273   0.4545455   0.4545455), wk =   0.0022539
        k(  328) = (   0.2727273   0.4545455  -0.5000000), wk =   0.0022539
        k(  329) = (   0.2727273  -0.5000000  -0.5000000), wk =   0.0005635
        k(  330) = (   0.3181818   0.3181818   0.3181818), wk =   0.0007513
        k(  331) = (   0.3181818   0.3181818   0.3636364), wk =   0.0022539
        k(  332) = (   0.3181818   0.3181818   0.4090909), wk =   0.0022539
        k(  333) = (   0.3181818   0.3181818   0.4545455), wk =   0.0022539
        k(  334) = (   0.3181818   0.3181818  -0.5000000), wk =   0.0011270
        k(  335) = (   0.3181818   0.3636364   0.3636364), wk =   0.0022539
        k(  336) = (   0.3181818   0.3636364   0.4090909), wk =   0.0045079
        k(  337) = (   0.3181818   0.3636364   0.4545455), wk =   0.0045079
        k(  338) = (   0.3181818   0.3636364  -0.5000000), wk =   0.0022539
        k(  339) = (   0.3181818   0.4090909   0.4090909), wk =   0.0022539
        k(  340) = (   0.3181818   0.4090909   0.4545455), wk =   0.0045079
        k(  341) = (   0.3181818   0.4090909  -0.5000000), wk =   0.0022539
        k(  342) = (   0.3181818   0.4545455   0.4545455), wk =   0.0022539
        k(  343) = (   0.3181818   0.4545455  -0.5000000), wk =   0.0022539
        k(  344) = (   0.3181818  -0.5000000  -0.5000000), wk =   0.0005635
        k(  345) = (   0.3636364   0.3636364   0.3636364), wk =   0.0007513
        k(  346) = (   0.3636364   0.3636364   0.4090909), wk =   0.0022539
        k(  347) = (   0.3636364   0.3636364   0.4545455), wk =   0.0022539
        k(  348) = (   0.3636364   0.3636364  -0.5000000), wk =   0.0011270
        k(  349) = (   0.3636364   0.4090909   0.4090909), wk =   0.0022539
        k(  350) = (   0.3636364   0.4090909   0.4545455), wk =   0.0045079
        k(  351) = (   0.3636364   0.4090909  -0.5000000), wk =   0.0022539
        k(  352) = (   0.3636364   0.4545455   0.4545455), wk =   0.0022539
        k(  353) = (   0.3636364   0.4545455  -0.5000000), wk =   0.0022539
        k(  354) = (   0.3636364  -0.5000000  -0.5000000), wk =   0.0005635
        k(  355) = (   0.4090909   0.4090909   0.4090909), wk =   0.0007513
        k(  356) = (   0.4090909   0.4090909   0.4545455), wk =   0.0022539
        k(  357) = (   0.4090909   0.4090909  -0.5000000), wk =   0.0011270
        k(  358) = (   0.4090909   0.4545455   0.4545455), wk =   0.0022539
        k(  359) = (   0.4090909   0.4545455  -0.5000000), wk =   0.0022539
        k(  360) = (   0.4090909  -0.5000000  -0.5000000), wk =   0.0005635
        k(  361) = (   0.4545455   0.4545455   0.4545455), wk =   0.0007513
        k(  362) = (   0.4545455   0.4545455  -0.5000000), wk =   0.0011270
        k(  363) = (   0.4545455  -0.5000000  -0.5000000), wk =   0.0005635
        k(  364) = (  -0.5000000  -0.5000000  -0.5000000), wk =   0.0000939

     Dense  grid:    94533 G-vectors     FFT dimensions: (  60,  60,  60)

     Smooth grid:    18277 G-vectors     FFT dimensions: (  36,  36,  36)

     Dynamical RAM for                 wfc:       0.69 MB

     Dynamical RAM for     wfc (w. buffer):     506.35 MB

     Dynamical RAM for           str. fact:       1.44 MB

     Dynamical RAM for           local pot:       0.00 MB

[...]
     1.0000   1.0000   1.0000   1.0000   1.0000   1.0000   1.0000   1.0000
     1.0000   1.0000   1.0000   1.0000   1.0000   1.0000   0.0000   0.0000
     0.0000   0.0000   0.0000   0.0000

          k = 0.3636 0.3636 0.3636 (  2296 PWs)   bands (ev):

   -67.6177 -67.6081 -34.0138 -33.9632 -33.9632 -33.7972 -33.7972 -33.7464
    14.9810  15.3251  15.7386  15.7386  15.9191  15.9191  19.2146  19.2146
    19.2565  19.2565  21.9407  25.2096

     occupation numbers 
     1.0000   1.0000   1.0000   1.0000   1.0000   1.0000   1.0000   1.0000
     1.0000   1.0000   1.0000   1.0000   1.0000   1.0000   0.0000   0.0000
     0.0000   0.0000   0.0000   0.0000

          k = 0.3636 0.3636 0.4091 (  2291 PWs)   bands (ev):

   -67.6157 -67.6091 -34.0098 -33.9769 -33.9360 -33.8235 -33.7904 -33.7544
    15.1614  15.2978  15.7125  15.7549  15.8309  15.9951  19.2084  19.2458
    19.2801  19.3066  22.3635  24.5745

     occupation numbers 
     1.0000   1.0000   1.0000   1.0000   1.0000   1.0000   1.0000   1.0000
     1.0000   1.0000   1.0000   1.0000   1.0000   1.0000   0.0000   0.0000
     0.0000   0.0000   0.0000   0.0000

          k = 0.3636 0.3636 0.4545 (  2298 PWs)   bands (ev):

   -67.6137 -67.6104 -34.0046 -33.9885 -33.9079 -33.8511 -33.7820 -33.7634
    15.2289  15.2683  15.7066  15.7652  15.8620  16.0198  19.2122  19.2337
    19.3236  19.3368  22.8266  23.9345

     occupation numbers 
     1.0000   1.0000   1.0000   1.0000   1.0000   1.0000   1.0000   1.0000
     1.0000   1.0000   1.0000   1.0000   1.0000   1.0000   0.0000   0.0000
     0.0000   0.0000   0.0000   0.0000

          k = 0.3636 0.3636-0.5000 (  2292 PWs)   bands (ev):

   -67.6120 -67.6120 -33.9976 -33.9976 -33.8794 -33.8794 -33.7728 -33.7728
    15.2489  15.2489  15.7237  15.7237  15.9710  15.9710  19.2217  19.2217
    19.3429  19.3429  23.3475  23.3475

     occupation numbers 
     1.0000   1.0000   1.0000   1.0000   1.0000   1.0000   1.0000   1.0000
     1.0000   1.0000   1.0000   1.0000   1.0000   1.0000   0.0000   0.0000
     0.0000   0.0000   0.0000   0.0000

          k = 0.3636 0.4091 0.4091 (  2291 PWs)   bands (ev):

   -67.6141 -67.6097 -34.0025 -33.9710 -33.9292 -33.8328 -33.8005 -33.7653
    15.3103  15.3138  15.6767  15.7706  15.8038  15.9937  19.2454  19.2735
    19.3034  19.3229  22.8131  24.7560

     occupation numbers 
     1.0000   1.0000   1.0000   1.0000   1.0000   1.0000   1.0000   1.0000
     1.0000   1.0000   1.0000   1.0000   1.0000   1.0000   0.0000   0.0000
     0.0000   0.0000   0.0000   0.0000

          k = 0.3636 0.4091 0.4545 (  2292 PWs)   bands (ev):

   -67.6127 -67.6105 -33.9949 -33.9779 -33.9068 -33.8549 -33.7965 -33.7766
    15.3122  15.3383  15.6705  15.7406  15.8806  16.0155  19.2579  19.2735
    19.3363  19.3462  23.2928  24.3495

     occupation numbers 
     1.0000   1.0000   1.0000   1.0000   1.0000   1.0000   1.0000   1.0000
     1.0000   1.0000   1.0000   1.0000   1.0000   1.0000   0.0000   0.0000
     0.0000   0.0000   0.0000   0.0000

          k = 0.3636 0.4091-0.5000 (  2296 PWs)   bands (ev):

   -67.6115 -67.6115 -33.9867 -33.9867 -33.8808 -33.8808 -33.7875 -33.7875
    15.3227  15.3227  15.6933  15.6933  15.9795  15.9795  19.2666  19.2666
    19.3524  19.3524  23.8113  23.8113

     occupation numbers 
     1.0000   1.0000   1.0000   1.0000   1.0000   1.0000   1.0000   1.0000
     1.0000   1.0000   1.0000   1.0000   1.0000   1.0000   0.0000   0.0000
     0.0000   0.0000   0.0000   0.0000

          k = 0.3636 0.4545 0.4545 (  2289 PWs)   bands (ev):

   -67.6119 -67.6107 -33.9866 -33.9760 -33.8959 -33.8641 -33.8025 -33.7890
    15.3307  15.3597  15.6415  15.6873  15.9731  16.0483  19.2801  19.2886
    19.3556  19.3605  23.7619  24.4746

     occupation numbers 
     1.0000   1.0000   1.0000   1.0000   1.0000   1.0000   1.0000   1.0000
     1.0000   1.0000   1.0000   1.0000   1.0000   1.0000   0.0000   0.0000
     0.0000   0.0000   0.0000   0.0000

          k = 0.3636 0.4545-0.5000 (  2292 PWs)   bands (ev):

   -67.6112 -67.6112 -33.9799 -33.9799 -33.8795 -33.8795 -33.7988 -33.7988
    15.3471  15.3472  15.6486  15.6486  16.0401  16.0401  19.2888  19.2888
    19.3660  19.3660  24.2029  24.2029

     occupation numbers 
     1.0000   1.0000   1.0000   1.0000   1.0000   1.0000   1.0000   1.0000
     1.0000   1.0000   1.0000   1.0000   1.0000   1.0000   0.0000   0.0000
     0.0000   0.0000   0.0000   0.0000

          k = 0.3636-0.5000-0.5000 (  2288 PWs)   bands (ev):

   -67.6111 -67.6111 -33.9777 -33.9777 -33.8784 -33.8784 -33.8033 -33.8033
    15.3526  15.3526  15.6301  15.6301  16.0684  16.0684  19.2946  19.2946
    19.3726  19.3726  24.3791  24.3791

     occupation numbers 
     1.0000   1.0000   1.0000   1.0000   1.0000   1.0000   1.0000   1.0000
     1.0000   1.0000   1.0000   1.0000   1.0000   1.0000   0.0000   0.0000
     0.0000   0.0000   0.0000   0.0000

          k = 0.4091 0.4091 0.4091 (  2290 PWs)   bands (ev):

   -67.6129 -67.6099 -33.9907 -33.9431 -33.9431 -33.8275 -33.8275 -33.7796
    15.3657  15.5348  15.6635  15.6635  15.8692  15.8692  19.3035  19.3035
    19.3209  19.3209  23.3068  25.5056

     occupation numbers 
     1.0000   1.0000   1.0000   1.0000   1.0000   1.0000   1.0000   1.0000
     1.0000   1.0000   1.0000   1.0000   1.0000   1.0000   0.0000   0.0000
     0.0000   0.0000   0.0000   0.0000

          k = 0.4091 0.4091 0.4545 (  2286 PWs)   bands (ev):

   -67.6119 -67.6104 -33.9793 -33.9560 -33.9142 -33.8558 -33.8188 -33.7938
    15.4015  15.5123  15.6732  15.7729  15.7743  15.9075  19.3072  19.3172
    19.3423  19.3508  23.8254  24.9579

     occupation numbers 
     1.0000   1.0000   1.0000   1.0000   1.0000   1.0000   1.0000   1.0000
     1.0000   1.0000   1.0000   1.0000   1.0000   1.0000   0.0000   0.0000
     0.0000   0.0000   0.0000   0.0000

          k = 0.4091 0.4091-0.5000 (  2288 PWs)   bands (ev):

   -67.6110 -67.6110 -33.9679 -33.9679 -33.8849 -33.8849 -33.8073 -33.8073
    15.4468  15.4468  15.7093  15.7093  15.8790  15.8790  19.3123  19.3123
    19.3585  19.3585  24.3785  24.3785

     occupation numbers 
     1.0000   1.0000   1.0000   1.0000   1.0000   1.0000   1.0000   1.0000
     1.0000   1.0000   1.0000   1.0000   1.0000   1.0000   0.0000   0.0000
     0.0000   0.0000   0.0000   0.0000

          k = 0.4091 0.4545 0.4545 (  2296 PWs)   bands (ev):

   -67.6112 -67.6104 -33.9655 -33.9476 -33.9070 -33.8642 -33.8300 -33.8102
    15.4558  15.5611  15.6369  15.7313  15.8245  15.8996  19.3292  19.3345
    19.3588  19.3633  24.3632  25.2395

     occupation numbers 
     1.0000   1.0000   1.0000   1.0000   1.0000   1.0000   1.0000   1.0000
     1.0000   1.0000   1.0000   1.0000   1.0000   1.0000   0.0000   0.0000
     0.0000   0.0000   0.0000   0.0000

          k = 0.4091 0.4545-0.5000 (  2292 PWs)   bands (ev):

   -67.6107 -67.6107 -33.9542 -33.9542 -33.8854 -33.8854 -33.8238 -33.8238
    15.5100  15.5100  15.6679  15.6679  15.8895  15.8895  19.3350  19.3350
    19.3699  19.3699  24.8884  24.8884

     occupation numbers 
     1.0000   1.0000   1.0000   1.0000   1.0000   1.0000   1.0000   1.0000
     1.0000   1.0000   1.0000   1.0000   1.0000   1.0000   0.0000   0.0000
     0.0000   0.0000   0.0000   0.0000

          k = 0.4091-0.5000-0.5000 (  2296 PWs)   bands (ev):

   -67.6106 -67.6106 -33.9492 -33.9492 -33.8845 -33.8845 -33.8309 -33.8309
    15.5401  15.5401  15.6286  15.6286  15.9112  15.9112  19.3399  19.3400
    19.3769  19.3769  25.1497  25.1497

     occupation numbers 
     1.0000   1.0000   1.0000   1.0000   1.0000   1.0000   1.0000   1.0000
     1.0000   1.0000   1.0000   1.0000   1.0000   1.0000   0.0000   0.0000
     0.0000   0.0000   0.0000   0.0000

          k = 0.4545 0.4545 0.4545 (  2293 PWs)   bands (ev):

   -67.6107 -67.6103 -33.9466 -33.9183 -33.9183 -33.8588 -33.8588 -33.8304
    15.5287  15.6569  15.6569  15.7532  15.7857  15.7857  19.3619  19.3619
    19.3644  19.3644  24.9612  26.0329

     occupation numbers 
     1.0000   1.0000   1.0000   1.0000   1.0000   1.0000   1.0000   1.0000
     1.0000   1.0000   1.0000   1.0000   1.0000   1.0000   0.0000   0.0000
     0.0000   0.0000   0.0000   0.0000

          k = 0.4545 0.4545-0.5000 (  2292 PWs)   bands (ev):

   -67.6104 -67.6104 -33.9310 -33.9310 -33.8885 -33.8884 -33.8473 -33.8473
    15.5946  15.5946  15.7054  15.7054  15.7946  15.7946  19.3639  19.3639
    19.3741  19.3741  25.5432  25.5432

     occupation numbers 
     1.0000   1.0000   1.0000   1.0000   1.0000   1.0000   1.0000   1.0000
     1.0000   1.0000   1.0000   1.0000   1.0000   1.0000   0.0000   0.0000
     0.0000   0.0000   0.0000   0.0000

          k = 0.4545-0.5000-0.5000 (  2296 PWs)   bands (ev):

   -67.6103 -67.6103 -33.9196 -33.9196 -33.8883 -33.8883 -33.8599 -33.8599
    15.6521  15.6521  15.6625  15.6625  15.7905  15.7905  19.3700  19.3700
    19.3796  19.3796  25.9480  25.9480

     occupation numbers 
     1.0000   1.0000   1.0000   1.0000   1.0000   1.0000   1.0000   1.0000
     1.0000   1.0000   1.0000   1.0000   1.0000   1.0000   0.0000   0.0000
     0.0000   0.0000   0.0000   0.0000

          k =-0.5000-0.5000-0.5000 (  2272 PWs)   bands (ev):

   -67.6102 -67.6102 -33.8896 -33.8896 -33.8896 -33.8896 -33.8896 -33.8896
    15.7050  15.7050  15.7050  15.7050  15.7050  15.7050  19.3805  19.3805
    19.3805  19.3805  26.7721  26.7721

     occupation numbers 
     1.0000   1.0000   1.0000   1.0000   1.0000   1.0000   1.0000   1.0000
     1.0000   1.0000   1.0000   1.0000   1.0000   1.0000   0.0000   0.0000
     0.0000   0.0000   0.0000   0.0000

     the Fermi energy is    17.4408 ev

!    total energy              =    -653.82745507 Ry

     total all-electron energy =     -5086.478877 Ry
     estimated scf accuracy    <          4.3E-11 Ry
     smearing contrib. (-TS)   =       0.00020686 Ry
     internal energy E=F+TS    =    -653.82766192 Ry

     The total energy is F=E-TS. E is the sum of the following terms:
     one-electron contribution =    -224.30419219 Ry
     hartree contribution      =     132.35973943 Ry
     xc contribution           =     -68.95946163 Ry
     ewald contribution        =    -344.75849517 Ry
     one-center paw contrib.   =    -148.16525235 Ry
      -> PAW hartree energy AE =     415.74666692 Ry
      -> PAW hartree energy PS =    -414.00582628 Ry
      -> PAW xc energy AE      =    -217.79514504 Ry
      -> PAW xc energy PS      =      67.88905204 Ry
      -> total E_H with PAW    =     134.10058007 Ry
      -> total E_XC with PAW   =    -218.86555463 Ry

     total magnetization       =     4.42 Bohr mag/cell
     absolute magnetization    =     4.63 Bohr mag/cell

     convergence has been achieved in  21 iterations

     negative rho (up, down):  0.000E+00 7.478E-05

     Forces acting on atoms (cartesian axes, Ry/au):

     atom    1 type  1   force =     0.00000000    0.00000000    0.00000000
     atom    2 type  1   force =     0.00000000    0.00000000    0.00000000
     The non-local contrib.  to forces
     atom    1 type  1   force =     0.00000000    0.00000000    0.00000000
     atom    2 type  1   force =     0.00000000    0.00000000    0.00000000
     The ionic contribution  to forces
     atom    1 type  1   force =    -0.00000000   -0.00000000   -0.00000000
     atom    2 type  1   force =     0.00000000    0.00000000    0.00000000
     The local contribution  to forces
     atom    1 type  1   force =     0.00000000   -0.00000000    0.00000000
     atom    2 type  1   force =     0.00000000    0.00000000    0.00000000
     The core correction contribution to forces
     atom    1 type  1   force =    -0.00000000   -0.00000000    0.00000000
     atom    2 type  1   force =    -0.00000000    0.00000000   -0.00000000
     The Hubbard contrib.    to forces
     atom    1 type  1   force =     0.00000000    0.00000000    0.00000000
     atom    2 type  1   force =     0.00000000    0.00000000    0.00000000
     The SCF correction term to forces
     atom    1 type  1   force =     0.00000000   -0.00000000   -0.00000000
     atom    2 type  1   force =    -0.00000000    0.00000000   -0.00000000

     Total force =     0.000000     Total SCF correction =     0.000000


     Computing stress (Cartesian axis) and pressure


     negative rho (up, down):  0.000E+00 7.478E-05
          total   stress  (Ry/bohr**3)                   (kbar)     P=     -143.22
  -0.00097358   0.00000000   0.00000000         -143.22        0.00        0.00
   0.00000000  -0.00097358   0.00000000            0.00     -143.22        0.00
   0.00000000   0.00000000  -0.00097358            0.00        0.00     -143.22

     kinetic stress (kbar)  79353.98      0.00      0.00
                                0.00  79353.98      0.00
                                0.00      0.00  79353.98

     local   stress (kbar)  66928.58     -0.00     -0.00
                               -0.00  66928.58      0.00
                               -0.00      0.00  66928.58

     nonloc. stress (kbar) -61872.82      0.00      0.00
                                0.00 -61872.82      0.00
                                0.00      0.00 -61872.82

     hartree stress (kbar)  41111.91      0.00      0.00
                                0.00  41111.91     -0.00
                                0.00     -0.00  41111.91

     exc-cor stress (kbar)  -2354.74     -0.00     -0.00
                               -0.00  -2354.74      0.00
                               -0.00      0.00  -2354.74

     corecor stress (kbar) -16225.59     -0.00      0.00
                               -0.00 -16225.59      0.00
                                0.00      0.00 -16225.59

     ewald   stress (kbar)-107084.53      0.00      0.00
                                0.00-107084.53      0.00
                                0.00      0.00-107084.53

     hubbard stress (kbar)      0.00      0.00      0.00
                                0.00      0.00      0.00
                                0.00      0.00      0.00

     DFT-D   stress (kbar)      0.00      0.00      0.00
                                0.00      0.00      0.00
                                0.00      0.00      0.00

     XDM     stress (kbar)      0.00      0.00      0.00
                                0.00      0.00      0.00
                                0.00      0.00      0.00

     dft-nl  stress (kbar)      0.00      0.00      0.00
                                0.00      0.00      0.00
                                0.00      0.00      0.00

     TS-vdW  stress (kbar)      0.00      0.00      0.00
                                0.00      0.00      0.00
                                0.00      0.00      0.00


                                0.00      0.00      0.00
                                0.00      0.00      0.00


                                0.00      0.00      0.00


     Writing output data file ./fe/out/aiida.save/
 
     init_run     :      3.28s CPU      3.46s WALL (       1 calls)
     electrons    :    165.97s CPU    166.55s WALL (       1 calls)
     forces       :      0.64s CPU      0.63s WALL (       1 calls)
     stress       :      4.77s CPU      3.70s WALL (       1 calls)

     Called by init_run:
     wfcinit      :      2.35s CPU      2.47s WALL (       1 calls)
                                        2.47s GPU  (       1 calls)
     wfcinit:atom :      0.14s CPU      0.14s WALL (     728 calls)
                                        0.08s GPU  (     728 calls)
     wfcinit:wfcr :      1.65s CPU      1.70s WALL (     728 calls)
                                        1.70s GPU  (     728 calls)
     potinit      :      0.47s CPU      0.33s WALL (       1 calls)
     hinit0       :      0.14s CPU      0.14s WALL (       1 calls)

     Called by electrons:
     c_bands      :    145.30s CPU    148.93s WALL (      22 calls)
     sum_band     :     10.83s CPU     10.81s WALL (      22 calls)
     v_of_rho     :      1.13s CPU      0.89s WALL (      22 calls)
     v_h          :      0.07s CPU      0.04s WALL (      22 calls)
     v_xc         :      1.16s CPU      0.92s WALL (      24 calls)
     newd         :      0.40s CPU      0.63s WALL (      22 calls)
                                        0.63s GPU  (      22 calls)
     PAW_pot      :      8.52s CPU      5.70s WALL (      22 calls)
     mix_rho      :      0.27s CPU      0.17s WALL (      22 calls)

     Called by c_bands:
     init_us_2_gp :      3.13s CPU      3.33s WALL (   34216 calls)
     cegterg      :    139.62s CPU    142.47s WALL (   16016 calls)

     Called by sum_band:
     sum_band:wei :      0.12s CPU      0.12s WALL (      22 calls)
                                        0.12s GPU  (      22 calls)
     sum_band:loo :     10.32s CPU     10.38s WALL (      22 calls)
                                       10.38s GPU  (      22 calls)
     sum_band:buf :      1.25s CPU      1.33s WALL (   16016 calls)
                                        1.28s GPU  (   16016 calls)
     sum_band:ini :      1.53s CPU      3.07s WALL (   16016 calls)
                                        3.02s GPU  (   16016 calls)
     sum_band:cal :      0.09s CPU      1.76s WALL (   16016 calls)
                                        1.64s GPU  (   16016 calls)
     sum_band:bec :      0.82s CPU      0.89s WALL (   16016 calls)
                                        0.84s GPU  (   16016 calls)
     addusdens    :      0.13s CPU      0.13s WALL (      22 calls)
                                        0.13s GPU  (      22 calls)
     addusd:skk   :      0.00s CPU      0.00s WALL (      22 calls)
                                        0.00s GPU  (      22 calls)

     Called by *egterg:
     cdiaghg      :     72.99s CPU     73.42s WALL (   55285 calls)
                                       73.15s GPU  (   55285 calls)
     cegterg:over :     16.31s CPU     16.45s WALL (   39997 calls)
     cegterg:upda :      2.46s CPU      2.46s WALL (   39997 calls)
     cegterg:last :      3.24s CPU      3.25s WALL (   31441 calls)
     h_psi        :     24.08s CPU     25.82s WALL (   56741 calls)
                                       25.53s GPU  (   56741 calls)
     s_psi        :      1.11s CPU      5.14s WALL (   56741 calls)
                                        4.92s GPU  (   56741 calls)
     g_psi        :      0.07s CPU      0.38s WALL (   39997 calls)
                                        0.26s GPU  (   39997 calls)

     Called by h_psi:
     h_psi:calbec :      0.38s CPU      4.94s WALL (   56741 calls)
                                        4.77s GPU  (   56741 calls)
     vloc_psi     :     14.07s CPU     15.55s WALL (   56741 calls)
                                       15.20s GPU  (   56741 calls)
     add_vuspsi   :      0.48s CPU      4.53s WALL (   56741 calls)
                                        4.36s GPU  (   56741 calls)

     General routines
     calbec       :      0.42s CPU      0.44s WALL (   76397 calls)
     fft          :      1.08s CPU      0.56s WALL (     590 calls)
                                        0.03s GPU  (      52 calls)
     ffts         :      0.05s CPU      0.03s WALL (      88 calls)
     fftw         :      1.12s CPU     17.42s WALL (  213826 calls)
                                       15.21s GPU  (  213826 calls)
     interpolate  :      0.12s CPU      0.06s WALL (      44 calls)
 
     Parallel routines

     PAW routines
     PAW_pot      :      8.52s CPU      5.70s WALL (      22 calls)
     PAW_symme    :      0.03s CPU      0.03s WALL (      44 calls)
 
     PWSCF        :    175.18s CPU    174.84s WALL

 
   This run was terminated on:   3:26:20  12Mar2025            

=------------------------------------------------------------------------------=
   JOB DONE.
=------------------------------------------------------------------------------=
Warning: ieee_invalid is signaling
Warning: ieee_divide_by_zero is signaling
Warning: ieee_underflow is signaling
Warning: ieee_inexact is signaling
FORTRAN STOP
