
     Program PWSCF v.6.8 starts on 28Feb2025 at  5:35:16 

     This program is part of the open-source Quantum ESPRESSO suite
     for quantum simulation of materials; please cite
         "P. Giannozzi et al., J. Phys.:Condens. Matter 21 395502 (2009);
         "P. Giannozzi et al., J. Phys.:Condens. Matter 29 465901 (2017);
         "P. Giannozzi et al., J. Chem. Phys. 152 154105 (2020);
          URL http://www.quantum-espresso.org", 
     in publications or presentations arising from this work. More details at
     http://www.quantum-espresso.org/quote

     Parallel version (MPI & OpenMP), running on       2 processor cores
     Number of MPI processes:                 1
     Threads/MPI process:                     2

     MPI processes distributed on     1 nodes
     6854 MiB available memory on the printing compute node when the environment starts
 
     Reading input from fenipt/pwscf.in

     Current dimensions of program PWSCF are:
     Max number of different atomic species (ntypx) = 10
     Max number of k-points (npk) =  40000
     Max angular momentum in pseudopotentials (lmaxx) =  4
     file Fe.pbesol-spn-kjpaw_psl.0.2.1.UPF: wavefunction(s)  3D renormalized
     Message from routine setup:
     using ibrav=0 with symmetry is DISCOURAGED, use correct ibrav instead

     Subspace diagonalization in iterative solution of the eigenvalue problem:
     a serial algorithm will be used

 
     G-vector sticks info
     --------------------
     sticks:   dense  smooth     PW     G-vecs:    dense   smooth      PW
     Sum        4577    1533    437               219263    42157    6611
 
     Using Slab Decomposition
 


     bravais-lattice index     =            0
     lattice parameter (alat)  =       7.2943  a.u.
     unit-cell volume          =     365.9928 (a.u.)^3
     number of atoms/cell      =            4
     number of atomic types    =            3
     number of electrons       =        66.00
     number of Kohn-Sham states=           40
     kinetic-energy cutoff     =      90.0000  Ry
     charge density cutoff     =    1080.0000  Ry
     scf convergence threshold =      8.0E-10
     mixing beta               =       0.4000
     number of iterations used =            8  plain     mixing
     Exchange-correlation= SLA  PW   PSX  PSC
                           (   1   4  10   8   0   0   0)

     GPU acceleration is ACTIVE.
     GPU-aware MPI enabled


     GPU used by master process:

        Device Number: 0
        Device name: NVIDIA GeForce RTX 4090
        Compute capability : 89
        Ratio of single to double precision performance  : 64
        Memory Clock Rate (KHz): 10501000
        Memory Bus Width (bits): 384
        Peak Memory Bandwidth (GB/s): ******

     celldm(1)=   7.294343  celldm(2)=   0.000000  celldm(3)=   0.000000
     celldm(4)=   0.000000  celldm(5)=   0.000000  celldm(6)=   0.000000

     crystal axes: (cart. coord. in units of alat)
               a(1) = (   1.000000   0.000000   0.000000 )  
               a(2) = (   0.000000   1.000000   0.000000 )  
               a(3) = (   0.000000   0.000000   0.943005 )  

     reciprocal axes: (cart. coord. in units 2 pi/alat)
               b(1) = (  1.000000  0.000000  0.000000 )  
               b(2) = (  0.000000  1.000000  0.000000 )  
               b(3) = (  0.000000  0.000000  1.060440 )  


     PseudoPot. # 1 for Fe read from file:
     ./fenipt/pseudo/Fe.pbesol-spn-kjpaw_psl.0.2.1.UPF
     MD5 check sum: 4d7ec5aa2156491519a4322664fbbf52
     Pseudo is Projector augmented-wave + core cor, Zval = 16.0
     Generated using "atomic" code by A. Dal Corso  v.6.0 svn rev. 13079
     Shape of augmentation charge: PSQ
     Using radial grid of 1191 points,  6 beta functions with: 
                l(1) =   0
                l(2) =   0
                l(3) =   1
                l(4) =   1
                l(5) =   2
                l(6) =   2
     Q(r) pseudized with 0 coefficients 


     PseudoPot. # 2 for Ni read from file:
     ./fenipt/pseudo/ni_pbesol_v1.4.uspp.F.UPF
     MD5 check sum: de937c0c8ae4b350e69c02b76d8a83cb
     Pseudo is Ultrasoft + core correction, Zval = 18.0
     Generated by new atomic code, or converted to UPF format
     Using radial grid of  865 points,  6 beta functions with: 
                l(1) =   0
                l(2) =   0
                l(3) =   1
                l(4) =   1
                l(5) =   2
                l(6) =   2
     Q(r) pseudized with 10 coefficients,  rinner =    0.980   0.980   0.980
                                                       0.980   0.980

     PseudoPot. # 3 for Pt read from file:
     ./fenipt/pseudo/pt_pbesol_v1.4.uspp.F.UPF
     MD5 check sum: d14d547907f752a992688280a7473f8c
     Pseudo is Ultrasoft + core correction, Zval = 16.0
     Generated by new atomic code, or converted to UPF format
     Using radial grid of  985 points,  6 beta functions with: 
                l(1) =   0
                l(2) =   0
                l(3) =   1
                l(4) =   1
                l(5) =   2
                l(6) =   2
     Q(r) pseudized with  8 coefficients,  rinner =    1.300   1.300   1.300
                                                       1.300   1.300

     atomic species   valence    mass     pseudopotential
        Fe            16.00    55.84500     Fe( 1.00)
        Ni            18.00    58.69340     Ni( 1.00)
        Pt            16.00   195.08400     Pt( 1.00)

     Starting magnetic structure 
     atomic species   magnetization
        Fe           0.313
        Ni           0.278
        Pt           0.313

     16 Sym. Ops., with inversion, found


                                    s                        frac. trans.

      isym =  1     identity                                     

 cryst.   s( 1) = (     1          0          0      )
                  (     0          1          0      )
                  (     0          0          1      )

 cart.    s( 1) = (  1.0000000  0.0000000  0.0000000 )
                  (  0.0000000  1.0000000  0.0000000 )
                  (  0.0000000  0.0000000  1.0000000 )


      isym =  2     180 deg rotation - cart. axis [0,0,1]        

 cryst.   s( 2) = (    -1          0          0      )
                  (     0         -1          0      )
                  (     0          0          1      )

 cart.    s( 2) = ( -1.0000000  0.0000000  0.0000000 )
                  (  0.0000000 -1.0000000  0.0000000 )
                  (  0.0000000  0.0000000  1.0000000 )


      isym =  3     180 deg rotation - cart. axis [0,1,0]        

 cryst.   s( 3) = (    -1          0          0      )
                  (     0          1          0      )
                  (     0          0         -1      )

 cart.    s( 3) = ( -1.0000000  0.0000000  0.0000000 )
                  (  0.0000000  1.0000000  0.0000000 )
                  (  0.0000000  0.0000000 -1.0000000 )


      isym =  4     180 deg rotation - cart. axis [1,0,0]        

 cryst.   s( 4) = (     1          0          0      )
                  (     0         -1          0      )
                  (     0          0         -1      )

 cart.    s( 4) = (  1.0000000  0.0000000  0.0000000 )
                  (  0.0000000 -1.0000000  0.0000000 )
                  (  0.0000000  0.0000000 -1.0000000 )


      isym =  5     180 deg rotation - cart. axis [1,1,0]        

 cryst.   s( 5) = (     0          1          0      )
                  (     1          0          0      )
                  (     0          0         -1      )

 cart.    s( 5) = (  0.0000000  1.0000000  0.0000000 )
                  (  1.0000000  0.0000000  0.0000000 )
                  (  0.0000000  0.0000000 -1.0000000 )


      isym =  6     180 deg rotation - cart. axis [1,-1,0]       

 cryst.   s( 6) = (     0         -1          0      )
                  (    -1          0          0      )
                  (     0          0         -1      )

 cart.    s( 6) = (  0.0000000 -1.0000000  0.0000000 )
                  ( -1.0000000  0.0000000  0.0000000 )
                  (  0.0000000  0.0000000 -1.0000000 )


      isym =  7      90 deg rotation - cart. axis [0,0,-1]       

 cryst.   s( 7) = (     0         -1          0      )
                  (     1          0          0      )
                  (     0          0          1      )

 cart.    s( 7) = (  0.0000000  1.0000000  0.0000000 )
                  ( -1.0000000  0.0000000  0.0000000 )
                  (  0.0000000  0.0000000  1.0000000 )


      isym =  8      90 deg rotation - cart. axis [0,0,1]        

 cryst.   s( 8) = (     0          1          0      )
                  (    -1          0          0      )
                  (     0          0          1      )

 cart.    s( 8) = (  0.0000000 -1.0000000  0.0000000 )
                  (  1.0000000  0.0000000  0.0000000 )
                  (  0.0000000  0.0000000  1.0000000 )


      isym =  9     inversion                                    

 cryst.   s( 9) = (    -1          0          0      )
                  (     0         -1          0      )
                  (     0          0         -1      )

 cart.    s( 9) = ( -1.0000000  0.0000000  0.0000000 )
                  (  0.0000000 -1.0000000  0.0000000 )
                  (  0.0000000  0.0000000 -1.0000000 )


      isym = 10     inv. 180 deg rotation - cart. axis [0,0,1]   

 cryst.   s(10) = (     1          0          0      )
                  (     0          1          0      )
                  (     0          0         -1      )

 cart.    s(10) = (  1.0000000  0.0000000  0.0000000 )
                  (  0.0000000  1.0000000  0.0000000 )
                  (  0.0000000  0.0000000 -1.0000000 )


      isym = 11     inv. 180 deg rotation - cart. axis [0,1,0]   

 cryst.   s(11) = (     1          0          0      )
                  (     0         -1          0      )
                  (     0          0          1      )

 cart.    s(11) = (  1.0000000  0.0000000  0.0000000 )
                  (  0.0000000 -1.0000000  0.0000000 )
                  (  0.0000000  0.0000000  1.0000000 )


      isym = 12     inv. 180 deg rotation - cart. axis [1,0,0]   

 cryst.   s(12) = (    -1          0          0      )
                  (     0          1          0      )
                  (     0          0          1      )

 cart.    s(12) = ( -1.0000000  0.0000000  0.0000000 )
                  (  0.0000000  1.0000000  0.0000000 )
                  (  0.0000000  0.0000000  1.0000000 )


      isym = 13     inv. 180 deg rotation - cart. axis [1,1,0]   

 cryst.   s(13) = (     0         -1          0      )
                  (    -1          0          0      )
                  (     0          0          1      )

 cart.    s(13) = (  0.0000000 -1.0000000  0.0000000 )
                  ( -1.0000000  0.0000000  0.0000000 )
                  (  0.0000000  0.0000000  1.0000000 )


      isym = 14     inv. 180 deg rotation - cart. axis [1,-1,0]  

 cryst.   s(14) = (     0          1          0      )
                  (     1          0          0      )
                  (     0          0          1      )

 cart.    s(14) = (  0.0000000  1.0000000  0.0000000 )
                  (  1.0000000  0.0000000  0.0000000 )
                  (  0.0000000  0.0000000  1.0000000 )


      isym = 15     inv.  90 deg rotation - cart. axis [0,0,-1]  

 cryst.   s(15) = (     0          1          0      )
                  (    -1          0          0      )
                  (     0          0         -1      )

 cart.    s(15) = (  0.0000000 -1.0000000  0.0000000 )
                  (  1.0000000  0.0000000  0.0000000 )
                  (  0.0000000  0.0000000 -1.0000000 )


      isym = 16     inv.  90 deg rotation - cart. axis [0,0,1]   

 cryst.   s(16) = (     0         -1          0      )
                  (     1          0          0      )
                  (     0          0         -1      )

 cart.    s(16) = (  0.0000000  1.0000000  0.0000000 )
                  ( -1.0000000  0.0000000  0.0000000 )
                  (  0.0000000  0.0000000 -1.0000000 )


   Cartesian axes

     site n.     atom                  positions (alat units)
         1           Fe  tau(   1) = (   0.0000000   0.0000000   0.0000000  )
         2           Ni  tau(   2) = (   0.5000000   0.5000000   0.0000000  )
         3           Pt  tau(   3) = (   0.0000000   0.5000000   0.4715026  )
         4           Pt  tau(   4) = (   0.5000000   0.0000000   0.4715026  )

   Crystallographic axes

     site n.     atom                  positions (cryst. coord.)
         1           Fe  tau(   1) = (  0.0000000  0.0000000  0.0000000  )
         2           Ni  tau(   2) = (  0.5000000  0.5000000  0.0000000  )
         3           Pt  tau(   3) = (  0.0000000  0.5000000  0.5000000  )
         4           Pt  tau(   4) = (  0.5000000  0.0000000  0.5000000  )

     number of k points=   450  Marzari-Vanderbilt smearing, width (Ry)=  0.0125
                       cart. coord. in units 2pi/alat
        k(    1) = (   0.0000000   0.0000000   0.0000000), wk =   0.0001922
        k(    2) = (   0.0000000   0.0000000   0.0589133), wk =   0.0003845
        k(    3) = (   0.0000000   0.0000000   0.1178266), wk =   0.0003845
        k(    4) = (   0.0000000   0.0000000   0.1767399), wk =   0.0003845
        k(    5) = (   0.0000000   0.0000000   0.2356532), wk =   0.0003845
        k(    6) = (   0.0000000   0.0000000   0.2945665), wk =   0.0003845
        k(    7) = (   0.0000000   0.0000000   0.3534799), wk =   0.0003845
        k(    8) = (   0.0000000   0.0000000   0.4123932), wk =   0.0003845
        k(    9) = (   0.0000000   0.0000000   0.4713065), wk =   0.0003845
        k(   10) = (   0.0000000   0.0000000  -0.5302198), wk =   0.0001922
        k(   11) = (   0.0000000   0.0588235   0.0000000), wk =   0.0007689
        k(   12) = (   0.0000000   0.0588235   0.0589133), wk =   0.0015379
        k(   13) = (   0.0000000   0.0588235   0.1178266), wk =   0.0015379
        k(   14) = (   0.0000000   0.0588235   0.1767399), wk =   0.0015379
        k(   15) = (   0.0000000   0.0588235   0.2356532), wk =   0.0015379
        k(   16) = (   0.0000000   0.0588235   0.2945665), wk =   0.0015379
        k(   17) = (   0.0000000   0.0588235   0.3534799), wk =   0.0015379
        k(   18) = (   0.0000000   0.0588235   0.4123932), wk =   0.0015379
        k(   19) = (   0.0000000   0.0588235   0.4713065), wk =   0.0015379
        k(   20) = (   0.0000000   0.0588235  -0.5302198), wk =   0.0007689
        k(   21) = (   0.0000000   0.1176471   0.0000000), wk =   0.0007689
        k(   22) = (   0.0000000   0.1176471   0.0589133), wk =   0.0015379
        k(   23) = (   0.0000000   0.1176471   0.1178266), wk =   0.0015379
        k(   24) = (   0.0000000   0.1176471   0.1767399), wk =   0.0015379
        k(   25) = (   0.0000000   0.1176471   0.2356532), wk =   0.0015379
        k(   26) = (   0.0000000   0.1176471   0.2945665), wk =   0.0015379
        k(   27) = (   0.0000000   0.1176471   0.3534799), wk =   0.0015379
        k(   28) = (   0.0000000   0.1176471   0.4123932), wk =   0.0015379
        k(   29) = (   0.0000000   0.1176471   0.4713065), wk =   0.0015379
        k(   30) = (   0.0000000   0.1176471  -0.5302198), wk =   0.0007689
        k(   31) = (   0.0000000   0.1764706   0.0000000), wk =   0.0007689
        k(   32) = (   0.0000000   0.1764706   0.0589133), wk =   0.0015379
        k(   33) = (   0.0000000   0.1764706   0.1178266), wk =   0.0015379
        k(   34) = (   0.0000000   0.1764706   0.1767399), wk =   0.0015379
        k(   35) = (   0.0000000   0.1764706   0.2356532), wk =   0.0015379
        k(   36) = (   0.0000000   0.1764706   0.2945665), wk =   0.0015379
        k(   37) = (   0.0000000   0.1764706   0.3534799), wk =   0.0015379
        k(   38) = (   0.0000000   0.1764706   0.4123932), wk =   0.0015379
        k(   39) = (   0.0000000   0.1764706   0.4713065), wk =   0.0015379
        k(   40) = (   0.0000000   0.1764706  -0.5302198), wk =   0.0007689
        k(   41) = (   0.0000000   0.2352941   0.0000000), wk =   0.0007689
        k(   42) = (   0.0000000   0.2352941   0.0589133), wk =   0.0015379
        k(   43) = (   0.0000000   0.2352941   0.1178266), wk =   0.0015379
        k(   44) = (   0.0000000   0.2352941   0.1767399), wk =   0.0015379
        k(   45) = (   0.0000000   0.2352941   0.2356532), wk =   0.0015379
        k(   46) = (   0.0000000   0.2352941   0.2945665), wk =   0.0015379
        k(   47) = (   0.0000000   0.2352941   0.3534799), wk =   0.0015379
        k(   48) = (   0.0000000   0.2352941   0.4123932), wk =   0.0015379
        k(   49) = (   0.0000000   0.2352941   0.4713065), wk =   0.0015379
        k(   50) = (   0.0000000   0.2352941  -0.5302198), wk =   0.0007689
        k(   51) = (   0.0000000   0.2941176   0.0000000), wk =   0.0007689
        k(   52) = (   0.0000000   0.2941176   0.0589133), wk =   0.0015379
        k(   53) = (   0.0000000   0.2941176   0.1178266), wk =   0.0015379
        k(   54) = (   0.0000000   0.2941176   0.1767399), wk =   0.0015379
        k(   55) = (   0.0000000   0.2941176   0.2356532), wk =   0.0015379
        k(   56) = (   0.0000000   0.2941176   0.2945665), wk =   0.0015379
        k(   57) = (   0.0000000   0.2941176   0.3534799), wk =   0.0015379
        k(   58) = (   0.0000000   0.2941176   0.4123932), wk =   0.0015379
        k(   59) = (   0.0000000   0.2941176   0.4713065), wk =   0.0015379
        k(   60) = (   0.0000000   0.2941176  -0.5302198), wk =   0.0007689
        k(   61) = (   0.0000000   0.3529412   0.0000000), wk =   0.0007689
        k(   62) = (   0.0000000   0.3529412   0.0589133), wk =   0.0015379
        k(   63) = (   0.0000000   0.3529412   0.1178266), wk =   0.0015379
        k(   64) = (   0.0000000   0.3529412   0.1767399), wk =   0.0015379
        k(   65) = (   0.0000000   0.3529412   0.2356532), wk =   0.0015379
        k(   66) = (   0.0000000   0.3529412   0.2945665), wk =   0.0015379
        k(   67) = (   0.0000000   0.3529412   0.3534799), wk =   0.0015379
        k(   68) = (   0.0000000   0.3529412   0.4123932), wk =   0.0015379
        k(   69) = (   0.0000000   0.3529412   0.4713065), wk =   0.0015379
        k(   70) = (   0.0000000   0.3529412  -0.5302198), wk =   0.0007689
        k(   71) = (   0.0000000   0.4117647   0.0000000), wk =   0.0007689
        k(   72) = (   0.0000000   0.4117647   0.0589133), wk =   0.0015379
        k(   73) = (   0.0000000   0.4117647   0.1178266), wk =   0.0015379
        k(   74) = (   0.0000000   0.4117647   0.1767399), wk =   0.0015379
        k(   75) = (   0.0000000   0.4117647   0.2356532), wk =   0.0015379
        k(   76) = (   0.0000000   0.4117647   0.2945665), wk =   0.0015379
        k(   77) = (   0.0000000   0.4117647   0.3534799), wk =   0.0015379
        k(   78) = (   0.0000000   0.4117647   0.4123932), wk =   0.0015379
        k(   79) = (   0.0000000   0.4117647   0.4713065), wk =   0.0015379
        k(   80) = (   0.0000000   0.4117647  -0.5302198), wk =   0.0007689
        k(   81) = (   0.0000000   0.4705882   0.0000000), wk =   0.0007689
        k(   82) = (   0.0000000   0.4705882   0.0589133), wk =   0.0015379
        k(   83) = (   0.0000000   0.4705882   0.1178266), wk =   0.0015379
        k(   84) = (   0.0000000   0.4705882   0.1767399), wk =   0.0015379
        k(   85) = (   0.0000000   0.4705882   0.2356532), wk =   0.0015379
        k(   86) = (   0.0000000   0.4705882   0.2945665), wk =   0.0015379
        k(   87) = (   0.0000000   0.4705882   0.3534799), wk =   0.0015379
        k(   88) = (   0.0000000   0.4705882   0.4123932), wk =   0.0015379
        k(   89) = (   0.0000000   0.4705882   0.4713065), wk =   0.0015379
        k(   90) = (   0.0000000   0.4705882  -0.5302198), wk =   0.0007689
        k(   91) = (   0.0588235   0.0588235   0.0000000), wk =   0.0007689
        k(   92) = (   0.0588235   0.0588235   0.0589133), wk =   0.0015379
        k(   93) = (   0.0588235   0.0588235   0.1178266), wk =   0.0015379
        k(   94) = (   0.0588235   0.0588235   0.1767399), wk =   0.0015379
        k(   95) = (   0.0588235   0.0588235   0.2356532), wk =   0.0015379
        k(   96) = (   0.0588235   0.0588235   0.2945665), wk =   0.0015379
        k(   97) = (   0.0588235   0.0588235   0.3534799), wk =   0.0015379
        k(   98) = (   0.0588235   0.0588235   0.4123932), wk =   0.0015379
        k(   99) = (   0.0588235   0.0588235   0.4713065), wk =   0.0015379
        k(  100) = (   0.0588235   0.0588235  -0.5302198), wk =   0.0007689
        k(  101) = (   0.0588235   0.1176471   0.0000000), wk =   0.0015379
        k(  102) = (   0.0588235   0.1176471   0.0589133), wk =   0.0030757
        k(  103) = (   0.0588235   0.1176471   0.1178266), wk =   0.0030757
        k(  104) = (   0.0588235   0.1176471   0.1767399), wk =   0.0030757
        k(  105) = (   0.0588235   0.1176471   0.2356532), wk =   0.0030757
        k(  106) = (   0.0588235   0.1176471   0.2945665), wk =   0.0030757
        k(  107) = (   0.0588235   0.1176471   0.3534799), wk =   0.0030757
        k(  108) = (   0.0588235   0.1176471   0.4123932), wk =   0.0030757
        k(  109) = (   0.0588235   0.1176471   0.4713065), wk =   0.0030757
        k(  110) = (   0.0588235   0.1176471  -0.5302198), wk =   0.0015379
        k(  111) = (   0.0588235   0.1764706   0.0000000), wk =   0.0015379
        k(  112) = (   0.0588235   0.1764706   0.0589133), wk =   0.0030757
        k(  113) = (   0.0588235   0.1764706   0.1178266), wk =   0.0030757
        k(  114) = (   0.0588235   0.1764706   0.1767399), wk =   0.0030757
        k(  115) = (   0.0588235   0.1764706   0.2356532), wk =   0.0030757
        k(  116) = (   0.0588235   0.1764706   0.2945665), wk =   0.0030757
        k(  117) = (   0.0588235   0.1764706   0.3534799), wk =   0.0030757
        k(  118) = (   0.0588235   0.1764706   0.4123932), wk =   0.0030757
        k(  119) = (   0.0588235   0.1764706   0.4713065), wk =   0.0030757
        k(  120) = (   0.0588235   0.1764706  -0.5302198), wk =   0.0015379
        k(  121) = (   0.0588235   0.2352941   0.0000000), wk =   0.0015379
        k(  122) = (   0.0588235   0.2352941   0.0589133), wk =   0.0030757
        k(  123) = (   0.0588235   0.2352941   0.1178266), wk =   0.0030757
        k(  124) = (   0.0588235   0.2352941   0.1767399), wk =   0.0030757
        k(  125) = (   0.0588235   0.2352941   0.2356532), wk =   0.0030757
        k(  126) = (   0.0588235   0.2352941   0.2945665), wk =   0.0030757
        k(  127) = (   0.0588235   0.2352941   0.3534799), wk =   0.0030757
        k(  128) = (   0.0588235   0.2352941   0.4123932), wk =   0.0030757
        k(  129) = (   0.0588235   0.2352941   0.4713065), wk =   0.0030757
        k(  130) = (   0.0588235   0.2352941  -0.5302198), wk =   0.0015379
        k(  131) = (   0.0588235   0.2941176   0.0000000), wk =   0.0015379
        k(  132) = (   0.0588235   0.2941176   0.0589133), wk =   0.0030757
        k(  133) = (   0.0588235   0.2941176   0.1178266), wk =   0.0030757
        k(  134) = (   0.0588235   0.2941176   0.1767399), wk =   0.0030757
        k(  135) = (   0.0588235   0.2941176   0.2356532), wk =   0.0030757
        k(  136) = (   0.0588235   0.2941176   0.2945665), wk =   0.0030757
        k(  137) = (   0.0588235   0.2941176   0.3534799), wk =   0.0030757
        k(  138) = (   0.0588235   0.2941176   0.4123932), wk =   0.0030757
        k(  139) = (   0.0588235   0.2941176   0.4713065), wk =   0.0030757
        k(  140) = (   0.0588235   0.2941176  -0.5302198), wk =   0.0015379
        k(  141) = (   0.0588235   0.3529412   0.0000000), wk =   0.0015379
        k(  142) = (   0.0588235   0.3529412   0.0589133), wk =   0.0030757
        k(  143) = (   0.0588235   0.3529412   0.1178266), wk =   0.0030757
        k(  144) = (   0.0588235   0.3529412   0.1767399), wk =   0.0030757
        k(  145) = (   0.0588235   0.3529412   0.2356532), wk =   0.0030757
        k(  146) = (   0.0588235   0.3529412   0.2945665), wk =   0.0030757
        k(  147) = (   0.0588235   0.3529412   0.3534799), wk =   0.0030757
        k(  148) = (   0.0588235   0.3529412   0.4123932), wk =   0.0030757
        k(  149) = (   0.0588235   0.3529412   0.4713065), wk =   0.0030757
        k(  150) = (   0.0588235   0.3529412  -0.5302198), wk =   0.0015379
        k(  151) = (   0.0588235   0.4117647   0.0000000), wk =   0.0015379
        k(  152) = (   0.0588235   0.4117647   0.0589133), wk =   0.0030757
        k(  153) = (   0.0588235   0.4117647   0.1178266), wk =   0.0030757
        k(  154) = (   0.0588235   0.4117647   0.1767399), wk =   0.0030757
        k(  155) = (   0.0588235   0.4117647   0.2356532), wk =   0.0030757
        k(  156) = (   0.0588235   0.4117647   0.2945665), wk =   0.0030757
        k(  157) = (   0.0588235   0.4117647   0.3534799), wk =   0.0030757
        k(  158) = (   0.0588235   0.4117647   0.4123932), wk =   0.0030757
        k(  159) = (   0.0588235   0.4117647   0.4713065), wk =   0.0030757
        k(  160) = (   0.0588235   0.4117647  -0.5302198), wk =   0.0015379
        k(  161) = (   0.0588235   0.4705882   0.0000000), wk =   0.0015379
        k(  162) = (   0.0588235   0.4705882   0.0589133), wk =   0.0030757
        k(  163) = (   0.0588235   0.4705882   0.1178266), wk =   0.0030757
        k(  164) = (   0.0588235   0.4705882   0.1767399), wk =   0.0030757
        k(  165) = (   0.0588235   0.4705882   0.2356532), wk =   0.0030757
        k(  166) = (   0.0588235   0.4705882   0.2945665), wk =   0.0030757
        k(  167) = (   0.0588235   0.4705882   0.3534799), wk =   0.0030757
        k(  168) = (   0.0588235   0.4705882   0.4123932), wk =   0.0030757
        k(  169) = (   0.0588235   0.4705882   0.4713065), wk =   0.0030757
        k(  170) = (   0.0588235   0.4705882  -0.5302198), wk =   0.0015379
        k(  171) = (   0.1176471   0.1176471   0.0000000), wk =   0.0007689
        k(  172) = (   0.1176471   0.1176471   0.0589133), wk =   0.0015379
        k(  173) = (   0.1176471   0.1176471   0.1178266), wk =   0.0015379
        k(  174) = (   0.1176471   0.1176471   0.1767399), wk =   0.0015379
        k(  175) = (   0.1176471   0.1176471   0.2356532), wk =   0.0015379
        k(  176) = (   0.1176471   0.1176471   0.2945665), wk =   0.0015379
        k(  177) = (   0.1176471   0.1176471   0.3534799), wk =   0.0015379
        k(  178) = (   0.1176471   0.1176471   0.4123932), wk =   0.0015379
        k(  179) = (   0.1176471   0.1176471   0.4713065), wk =   0.0015379
        k(  180) = (   0.1176471   0.1176471  -0.5302198), wk =   0.0007689
        k(  181) = (   0.1176471   0.1764706   0.0000000), wk =   0.0015379
        k(  182) = (   0.1176471   0.1764706   0.0589133), wk =   0.0030757
        k(  183) = (   0.1176471   0.1764706   0.1178266), wk =   0.0030757
        k(  184) = (   0.1176471   0.1764706   0.1767399), wk =   0.0030757
        k(  185) = (   0.1176471   0.1764706   0.2356532), wk =   0.0030757
        k(  186) = (   0.1176471   0.1764706   0.2945665), wk =   0.0030757
        k(  187) = (   0.1176471   0.1764706   0.3534799), wk =   0.0030757
        k(  188) = (   0.1176471   0.1764706   0.4123932), wk =   0.0030757
        k(  189) = (   0.1176471   0.1764706   0.4713065), wk =   0.0030757
        k(  190) = (   0.1176471   0.1764706  -0.5302198), wk =   0.0015379
        k(  191) = (   0.1176471   0.2352941   0.0000000), wk =   0.0015379
        k(  192) = (   0.1176471   0.2352941   0.0589133), wk =   0.0030757
        k(  193) = (   0.1176471   0.2352941   0.1178266), wk =   0.0030757
        k(  194) = (   0.1176471   0.2352941   0.1767399), wk =   0.0030757
        k(  195) = (   0.1176471   0.2352941   0.2356532), wk =   0.0030757
        k(  196) = (   0.1176471   0.2352941   0.2945665), wk =   0.0030757
        k(  197) = (   0.1176471   0.2352941   0.3534799), wk =   0.0030757
        k(  198) = (   0.1176471   0.2352941   0.4123932), wk =   0.0030757
        k(  199) = (   0.1176471   0.2352941   0.4713065), wk =   0.0030757
        k(  200) = (   0.1176471   0.2352941  -0.5302198), wk =   0.0015379
        k(  201) = (   0.1176471   0.2941176   0.0000000), wk =   0.0015379
        k(  202) = (   0.1176471   0.2941176   0.0589133), wk =   0.0030757
        k(  203) = (   0.1176471   0.2941176   0.1178266), wk =   0.0030757
        k(  204) = (   0.1176471   0.2941176   0.1767399), wk =   0.0030757
        k(  205) = (   0.1176471   0.2941176   0.2356532), wk =   0.0030757
        k(  206) = (   0.1176471   0.2941176   0.2945665), wk =   0.0030757
        k(  207) = (   0.1176471   0.2941176   0.3534799), wk =   0.0030757
        k(  208) = (   0.1176471   0.2941176   0.4123932), wk =   0.0030757
        k(  209) = (   0.1176471   0.2941176   0.4713065), wk =   0.0030757
        k(  210) = (   0.1176471   0.2941176  -0.5302198), wk =   0.0015379
        k(  211) = (   0.1176471   0.3529412   0.0000000), wk =   0.0015379
        k(  212) = (   0.1176471   0.3529412   0.0589133), wk =   0.0030757
        k(  213) = (   0.1176471   0.3529412   0.1178266), wk =   0.0030757
        k(  214) = (   0.1176471   0.3529412   0.1767399), wk =   0.0030757
        k(  215) = (   0.1176471   0.3529412   0.2356532), wk =   0.0030757
        k(  216) = (   0.1176471   0.3529412   0.2945665), wk =   0.0030757
        k(  217) = (   0.1176471   0.3529412   0.3534799), wk =   0.0030757
        k(  218) = (   0.1176471   0.3529412   0.4123932), wk =   0.0030757
        k(  219) = (   0.1176471   0.3529412   0.4713065), wk =   0.0030757
        k(  220) = (   0.1176471   0.3529412  -0.5302198), wk =   0.0015379
        k(  221) = (   0.1176471   0.4117647   0.0000000), wk =   0.0015379
        k(  222) = (   0.1176471   0.4117647   0.0589133), wk =   0.0030757
        k(  223) = (   0.1176471   0.4117647   0.1178266), wk =   0.0030757
        k(  224) = (   0.1176471   0.4117647   0.1767399), wk =   0.0030757
        k(  225) = (   0.1176471   0.4117647   0.2356532), wk =   0.0030757
        k(  226) = (   0.1176471   0.4117647   0.2945665), wk =   0.0030757
        k(  227) = (   0.1176471   0.4117647   0.3534799), wk =   0.0030757
        k(  228) = (   0.1176471   0.4117647   0.4123932), wk =   0.0030757
        k(  229) = (   0.1176471   0.4117647   0.4713065), wk =   0.0030757
        k(  230) = (   0.1176471   0.4117647  -0.5302198), wk =   0.0015379
        k(  231) = (   0.1176471   0.4705882   0.0000000), wk =   0.0015379
        k(  232) = (   0.1176471   0.4705882   0.0589133), wk =   0.0030757
        k(  233) = (   0.1176471   0.4705882   0.1178266), wk =   0.0030757
        k(  234) = (   0.1176471   0.4705882   0.1767399), wk =   0.0030757
        k(  235) = (   0.1176471   0.4705882   0.2356532), wk =   0.0030757
        k(  236) = (   0.1176471   0.4705882   0.2945665), wk =   0.0030757
        k(  237) = (   0.1176471   0.4705882   0.3534799), wk =   0.0030757
        k(  238) = (   0.1176471   0.4705882   0.4123932), wk =   0.0030757
        k(  239) = (   0.1176471   0.4705882   0.4713065), wk =   0.0030757
        k(  240) = (   0.1176471   0.4705882  -0.5302198), wk =   0.0015379
        k(  241) = (   0.1764706   0.1764706   0.0000000), wk =   0.0007689
        k(  242) = (   0.1764706   0.1764706   0.0589133), wk =   0.0015379
        k(  243) = (   0.1764706   0.1764706   0.1178266), wk =   0.0015379
        k(  244) = (   0.1764706   0.1764706   0.1767399), wk =   0.0015379
        k(  245) = (   0.1764706   0.1764706   0.2356532), wk =   0.0015379
        k(  246) = (   0.1764706   0.1764706   0.2945665), wk =   0.0015379
        k(  247) = (   0.1764706   0.1764706   0.3534799), wk =   0.0015379
        k(  248) = (   0.1764706   0.1764706   0.4123932), wk =   0.0015379
        k(  249) = (   0.1764706   0.1764706   0.4713065), wk =   0.0015379
        k(  250) = (   0.1764706   0.1764706  -0.5302198), wk =   0.0007689
        k(  251) = (   0.1764706   0.2352941   0.0000000), wk =   0.0015379
        k(  252) = (   0.1764706   0.2352941   0.0589133), wk =   0.0030757
        k(  253) = (   0.1764706   0.2352941   0.1178266), wk =   0.0030757
        k(  254) = (   0.1764706   0.2352941   0.1767399), wk =   0.0030757
        k(  255) = (   0.1764706   0.2352941   0.2356532), wk =   0.0030757
        k(  256) = (   0.1764706   0.2352941   0.2945665), wk =   0.0030757
        k(  257) = (   0.1764706   0.2352941   0.3534799), wk =   0.0030757
        k(  258) = (   0.1764706   0.2352941   0.4123932), wk =   0.0030757
        k(  259) = (   0.1764706   0.2352941   0.4713065), wk =   0.0030757
        k(  260) = (   0.1764706   0.2352941  -0.5302198), wk =   0.0015379
        k(  261) = (   0.1764706   0.2941176   0.0000000), wk =   0.0015379
        k(  262) = (   0.1764706   0.2941176   0.0589133), wk =   0.0030757
        k(  263) = (   0.1764706   0.2941176   0.1178266), wk =   0.0030757
        k(  264) = (   0.1764706   0.2941176   0.1767399), wk =   0.0030757
        k(  265) = (   0.1764706   0.2941176   0.2356532), wk =   0.0030757
        k(  266) = (   0.1764706   0.2941176   0.2945665), wk =   0.0030757
        k(  267) = (   0.1764706   0.2941176   0.3534799), wk =   0.0030757
        k(  268) = (   0.1764706   0.2941176   0.4123932), wk =   0.0030757
        k(  269) = (   0.1764706   0.2941176   0.4713065), wk =   0.0030757
        k(  270) = (   0.1764706   0.2941176  -0.5302198), wk =   0.0015379
        k(  271) = (   0.1764706   0.3529412   0.0000000), wk =   0.0015379
        k(  272) = (   0.1764706   0.3529412   0.0589133), wk =   0.0030757
        k(  273) = (   0.1764706   0.3529412   0.1178266), wk =   0.0030757
        k(  274) = (   0.1764706   0.3529412   0.1767399), wk =   0.0030757
        k(  275) = (   0.1764706   0.3529412   0.2356532), wk =   0.0030757
        k(  276) = (   0.1764706   0.3529412   0.2945665), wk =   0.0030757
        k(  277) = (   0.1764706   0.3529412   0.3534799), wk =   0.0030757
        k(  278) = (   0.1764706   0.3529412   0.4123932), wk =   0.0030757
        k(  279) = (   0.1764706   0.3529412   0.4713065), wk =   0.0030757
        k(  280) = (   0.1764706   0.3529412  -0.5302198), wk =   0.0015379
        k(  281) = (   0.1764706   0.4117647   0.0000000), wk =   0.0015379
        k(  282) = (   0.1764706   0.4117647   0.0589133), wk =   0.0030757
        k(  283) = (   0.1764706   0.4117647   0.1178266), wk =   0.0030757
        k(  284) = (   0.1764706   0.4117647   0.1767399), wk =   0.0030757
        k(  285) = (   0.1764706   0.4117647   0.2356532), wk =   0.0030757
        k(  286) = (   0.1764706   0.4117647   0.2945665), wk =   0.0030757
        k(  287) = (   0.1764706   0.4117647   0.3534799), wk =   0.0030757
        k(  288) = (   0.1764706   0.4117647   0.4123932), wk =   0.0030757
        k(  289) = (   0.1764706   0.4117647   0.4713065), wk =   0.0030757
        k(  290) = (   0.1764706   0.4117647  -0.5302198), wk =   0.0015379
        k(  291) = (   0.1764706   0.4705882   0.0000000), wk =   0.0015379
        k(  292) = (   0.1764706   0.4705882   0.0589133), wk =   0.0030757
        k(  293) = (   0.1764706   0.4705882   0.1178266), wk =   0.0030757
        k(  294) = (   0.1764706   0.4705882   0.1767399), wk =   0.0030757
        k(  295) = (   0.1764706   0.4705882   0.2356532), wk =   0.0030757
        k(  296) = (   0.1764706   0.4705882   0.2945665), wk =   0.0030757
        k(  297) = (   0.1764706   0.4705882   0.3534799), wk =   0.0030757
        k(  298) = (   0.1764706   0.4705882   0.4123932), wk =   0.0030757
        k(  299) = (   0.1764706   0.4705882   0.4713065), wk =   0.0030757
        k(  300) = (   0.1764706   0.4705882  -0.5302198), wk =   0.0015379
        k(  301) = (   0.2352941   0.2352941   0.0000000), wk =   0.0007689
        k(  302) = (   0.2352941   0.2352941   0.0589133), wk =   0.0015379
        k(  303) = (   0.2352941   0.2352941   0.1178266), wk =   0.0015379
        k(  304) = (   0.2352941   0.2352941   0.1767399), wk =   0.0015379
        k(  305) = (   0.2352941   0.2352941   0.2356532), wk =   0.0015379
        k(  306) = (   0.2352941   0.2352941   0.2945665), wk =   0.0015379
        k(  307) = (   0.2352941   0.2352941   0.3534799), wk =   0.0015379
        k(  308) = (   0.2352941   0.2352941   0.4123932), wk =   0.0015379
        k(  309) = (   0.2352941   0.2352941   0.4713065), wk =   0.0015379
        k(  310) = (   0.2352941   0.2352941  -0.5302198), wk =   0.0007689
        k(  311) = (   0.2352941   0.2941176   0.0000000), wk =   0.0015379
        k(  312) = (   0.2352941   0.2941176   0.0589133), wk =   0.0030757
        k(  313) = (   0.2352941   0.2941176   0.1178266), wk =   0.0030757
        k(  314) = (   0.2352941   0.2941176   0.1767399), wk =   0.0030757
        k(  315) = (   0.2352941   0.2941176   0.2356532), wk =   0.0030757
        k(  316) = (   0.2352941   0.2941176   0.2945665), wk =   0.0030757
        k(  317) = (   0.2352941   0.2941176   0.3534799), wk =   0.0030757
        k(  318) = (   0.2352941   0.2941176   0.4123932), wk =   0.0030757
        k(  319) = (   0.2352941   0.2941176   0.4713065), wk =   0.0030757
        k(  320) = (   0.2352941   0.2941176  -0.5302198), wk =   0.0015379
        k(  321) = (   0.2352941   0.3529412   0.0000000), wk =   0.0015379
        k(  322) = (   0.2352941   0.3529412   0.0589133), wk =   0.0030757
        k(  323) = (   0.2352941   0.3529412   0.1178266), wk =   0.0030757
        k(  324) = (   0.2352941   0.3529412   0.1767399), wk =   0.0030757
        k(  325) = (   0.2352941   0.3529412   0.2356532), wk =   0.0030757
        k(  326) = (   0.2352941   0.3529412   0.2945665), wk =   0.0030757
        k(  327) = (   0.2352941   0.3529412   0.3534799), wk =   0.0030757
        k(  328) = (   0.2352941   0.3529412   0.4123932), wk =   0.0030757
        k(  329) = (   0.2352941   0.3529412   0.4713065), wk =   0.0030757
        k(  330) = (   0.2352941   0.3529412  -0.5302198), wk =   0.0015379
        k(  331) = (   0.2352941   0.4117647   0.0000000), wk =   0.0015379
        k(  332) = (   0.2352941   0.4117647   0.0589133), wk =   0.0030757
        k(  333) = (   0.2352941   0.4117647   0.1178266), wk =   0.0030757
        k(  334) = (   0.2352941   0.4117647   0.1767399), wk =   0.0030757
        k(  335) = (   0.2352941   0.4117647   0.2356532), wk =   0.0030757
        k(  336) = (   0.2352941   0.4117647   0.2945665), wk =   0.0030757
        k(  337) = (   0.2352941   0.4117647   0.3534799), wk =   0.0030757
        k(  338) = (   0.2352941   0.4117647   0.4123932), wk =   0.0030757
        k(  339) = (   0.2352941   0.4117647   0.4713065), wk =   0.0030757
        k(  340) = (   0.2352941   0.4117647  -0.5302198), wk =   0.0015379
        k(  341) = (   0.2352941   0.4705882   0.0000000), wk =   0.0015379
        k(  342) = (   0.2352941   0.4705882   0.0589133), wk =   0.0030757
        k(  343) = (   0.2352941   0.4705882   0.1178266), wk =   0.0030757
        k(  344) = (   0.2352941   0.4705882   0.1767399), wk =   0.0030757
        k(  345) = (   0.2352941   0.4705882   0.2356532), wk =   0.0030757
        k(  346) = (   0.2352941   0.4705882   0.2945665), wk =   0.0030757
        k(  347) = (   0.2352941   0.4705882   0.3534799), wk =   0.0030757
        k(  348) = (   0.2352941   0.4705882   0.4123932), wk =   0.0030757
        k(  349) = (   0.2352941   0.4705882   0.4713065), wk =   0.0030757
        k(  350) = (   0.2352941   0.4705882  -0.5302198), wk =   0.0015379
        k(  351) = (   0.2941176   0.2941176   0.0000000), wk =   0.0007689
        k(  352) = (   0.2941176   0.2941176   0.0589133), wk =   0.0015379
        k(  353) = (   0.2941176   0.2941176   0.1178266), wk =   0.0015379
        k(  354) = (   0.2941176   0.2941176   0.1767399), wk =   0.0015379
        k(  355) = (   0.2941176   0.2941176   0.2356532), wk =   0.0015379
        k(  356) = (   0.2941176   0.2941176   0.2945665), wk =   0.0015379
        k(  357) = (   0.2941176   0.2941176   0.3534799), wk =   0.0015379
        k(  358) = (   0.2941176   0.2941176   0.4123932), wk =   0.0015379
        k(  359) = (   0.2941176   0.2941176   0.4713065), wk =   0.0015379
        k(  360) = (   0.2941176   0.2941176  -0.5302198), wk =   0.0007689
        k(  361) = (   0.2941176   0.3529412   0.0000000), wk =   0.0015379
        k(  362) = (   0.2941176   0.3529412   0.0589133), wk =   0.0030757
        k(  363) = (   0.2941176   0.3529412   0.1178266), wk =   0.0030757
        k(  364) = (   0.2941176   0.3529412   0.1767399), wk =   0.0030757
        k(  365) = (   0.2941176   0.3529412   0.2356532), wk =   0.0030757
        k(  366) = (   0.2941176   0.3529412   0.2945665), wk =   0.0030757
        k(  367) = (   0.2941176   0.3529412   0.3534799), wk =   0.0030757
        k(  368) = (   0.2941176   0.3529412   0.4123932), wk =   0.0030757
        k(  369) = (   0.2941176   0.3529412   0.4713065), wk =   0.0030757
        k(  370) = (   0.2941176   0.3529412  -0.5302198), wk =   0.0015379
        k(  371) = (   0.2941176   0.4117647   0.0000000), wk =   0.0015379
        k(  372) = (   0.2941176   0.4117647   0.0589133), wk =   0.0030757
        k(  373) = (   0.2941176   0.4117647   0.1178266), wk =   0.0030757
        k(  374) = (   0.2941176   0.4117647   0.1767399), wk =   0.0030757
        k(  375) = (   0.2941176   0.4117647   0.2356532), wk =   0.0030757
        k(  376) = (   0.2941176   0.4117647   0.2945665), wk =   0.0030757
        k(  377) = (   0.2941176   0.4117647   0.3534799), wk =   0.0030757
        k(  378) = (   0.2941176   0.4117647   0.4123932), wk =   0.0030757
        k(  379) = (   0.2941176   0.4117647   0.4713065), wk =   0.0030757
        k(  380) = (   0.2941176   0.4117647  -0.5302198), wk =   0.0015379
        k(  381) = (   0.2941176   0.4705882   0.0000000), wk =   0.0015379
        k(  382) = (   0.2941176   0.4705882   0.0589133), wk =   0.0030757
        k(  383) = (   0.2941176   0.4705882   0.1178266), wk =   0.0030757
        k(  384) = (   0.2941176   0.4705882   0.1767399), wk =   0.0030757
        k(  385) = (   0.2941176   0.4705882   0.2356532), wk =   0.0030757
        k(  386) = (   0.2941176   0.4705882   0.2945665), wk =   0.0030757
        k(  387) = (   0.2941176   0.4705882   0.3534799), wk =   0.0030757
        k(  388) = (   0.2941176   0.4705882   0.4123932), wk =   0.0030757
        k(  389) = (   0.2941176   0.4705882   0.4713065), wk =   0.0030757
        k(  390) = (   0.2941176   0.4705882  -0.5302198), wk =   0.0015379
        k(  391) = (   0.3529412   0.3529412   0.0000000), wk =   0.0007689
        k(  392) = (   0.3529412   0.3529412   0.0589133), wk =   0.0015379
        k(  393) = (   0.3529412   0.3529412   0.1178266), wk =   0.0015379
        k(  394) = (   0.3529412   0.3529412   0.1767399), wk =   0.0015379
        k(  395) = (   0.3529412   0.3529412   0.2356532), wk =   0.0015379
        k(  396) = (   0.3529412   0.3529412   0.2945665), wk =   0.0015379
        k(  397) = (   0.3529412   0.3529412   0.3534799), wk =   0.0015379
        k(  398) = (   0.3529412   0.3529412   0.4123932), wk =   0.0015379
        k(  399) = (   0.3529412   0.3529412   0.4713065), wk =   0.0015379
        k(  400) = (   0.3529412   0.3529412  -0.5302198), wk =   0.0007689
        k(  401) = (   0.3529412   0.4117647   0.0000000), wk =   0.0015379
        k(  402) = (   0.3529412   0.4117647   0.0589133), wk =   0.0030757
        k(  403) = (   0.3529412   0.4117647   0.1178266), wk =   0.0030757
        k(  404) = (   0.3529412   0.4117647   0.1767399), wk =   0.0030757
        k(  405) = (   0.3529412   0.4117647   0.2356532), wk =   0.0030757
        k(  406) = (   0.3529412   0.4117647   0.2945665), wk =   0.0030757
        k(  407) = (   0.3529412   0.4117647   0.3534799), wk =   0.0030757
        k(  408) = (   0.3529412   0.4117647   0.4123932), wk =   0.0030757
        k(  409) = (   0.3529412   0.4117647   0.4713065), wk =   0.0030757
        k(  410) = (   0.3529412   0.4117647  -0.5302198), wk =   0.0015379
        k(  411) = (   0.3529412   0.4705882   0.0000000), wk =   0.0015379
        k(  412) = (   0.3529412   0.4705882   0.0589133), wk =   0.0030757
        k(  413) = (   0.3529412   0.4705882   0.1178266), wk =   0.0030757
        k(  414) = (   0.3529412   0.4705882   0.1767399), wk =   0.0030757
        k(  415) = (   0.3529412   0.4705882   0.2356532), wk =   0.0030757
        k(  416) = (   0.3529412   0.4705882   0.2945665), wk =   0.0030757
        k(  417) = (   0.3529412   0.4705882   0.3534799), wk =   0.0030757
        k(  418) = (   0.3529412   0.4705882   0.4123932), wk =   0.0030757
        k(  419) = (   0.3529412   0.4705882   0.4713065), wk =   0.0030757
        k(  420) = (   0.3529412   0.4705882  -0.5302198), wk =   0.0015379
        k(  421) = (   0.4117647   0.4117647   0.0000000), wk =   0.0007689
        k(  422) = (   0.4117647   0.4117647   0.0589133), wk =   0.0015379
        k(  423) = (   0.4117647   0.4117647   0.1178266), wk =   0.0015379
        k(  424) = (   0.4117647   0.4117647   0.1767399), wk =   0.0015379
        k(  425) = (   0.4117647   0.4117647   0.2356532), wk =   0.0015379
        k(  426) = (   0.4117647   0.4117647   0.2945665), wk =   0.0015379
        k(  427) = (   0.4117647   0.4117647   0.3534799), wk =   0.0015379
        k(  428) = (   0.4117647   0.4117647   0.4123932), wk =   0.0015379
        k(  429) = (   0.4117647   0.4117647   0.4713065), wk =   0.0015379
        k(  430) = (   0.4117647   0.4117647  -0.5302198), wk =   0.0007689
        k(  431) = (   0.4117647   0.4705882   0.0000000), wk =   0.0015379
        k(  432) = (   0.4117647   0.4705882   0.0589133), wk =   0.0030757
        k(  433) = (   0.4117647   0.4705882   0.1178266), wk =   0.0030757
        k(  434) = (   0.4117647   0.4705882   0.1767399), wk =   0.0030757
        k(  435) = (   0.4117647   0.4705882   0.2356532), wk =   0.0030757
        k(  436) = (   0.4117647   0.4705882   0.2945665), wk =   0.0030757
        k(  437) = (   0.4117647   0.4705882   0.3534799), wk =   0.0030757
        k(  438) = (   0.4117647   0.4705882   0.4123932), wk =   0.0030757
        k(  439) = (   0.4117647   0.4705882   0.4713065), wk =   0.0030757
        k(  440) = (   0.4117647   0.4705882  -0.5302198), wk =   0.0015379
        k(  441) = (   0.4705882   0.4705882   0.0000000), wk =   0.0007689
        k(  442) = (   0.4705882   0.4705882   0.0589133), wk =   0.0015379
        k(  443) = (   0.4705882   0.4705882   0.1178266), wk =   0.0015379
        k(  444) = (   0.4705882   0.4705882   0.1767399), wk =   0.0015379
        k(  445) = (   0.4705882   0.4705882   0.2356532), wk =   0.0015379
        k(  446) = (   0.4705882   0.4705882   0.2945665), wk =   0.0015379
        k(  447) = (   0.4705882   0.4705882   0.3534799), wk =   0.0015379
        k(  448) = (   0.4705882   0.4705882   0.4123932), wk =   0.0015379
        k(  449) = (   0.4705882   0.4705882   0.4713065), wk =   0.0015379
        k(  450) = (   0.4705882   0.4705882  -0.5302198), wk =   0.0007689

                       cryst. coord.
        k(    1) = (   0.0000000   0.0000000   0.0000000), wk =   0.0001922
        k(    2) = (   0.0000000   0.0000000   0.0555556), wk =   0.0003845
        k(    3) = (   0.0000000   0.0000000   0.1111111), wk =   0.0003845
        k(    4) = (   0.0000000   0.0000000   0.1666667), wk =   0.0003845
        k(    5) = (   0.0000000   0.0000000   0.2222222), wk =   0.0003845
        k(    6) = (   0.0000000   0.0000000   0.2777778), wk =   0.0003845
        k(    7) = (   0.0000000   0.0000000   0.3333333), wk =   0.0003845
        k(    8) = (   0.0000000   0.0000000   0.3888889), wk =   0.0003845
        k(    9) = (   0.0000000   0.0000000   0.4444444), wk =   0.0003845
        k(   10) = (   0.0000000   0.0000000  -0.5000000), wk =   0.0001922
        k(   11) = (   0.0000000   0.0588235   0.0000000), wk =   0.0007689
        k(   12) = (   0.0000000   0.0588235   0.0555556), wk =   0.0015379
        k(   13) = (   0.0000000   0.0588235   0.1111111), wk =   0.0015379
        k(   14) = (   0.0000000   0.0588235   0.1666667), wk =   0.0015379
        k(   15) = (   0.0000000   0.0588235   0.2222222), wk =   0.0015379
        k(   16) = (   0.0000000   0.0588235   0.2777778), wk =   0.0015379
        k(   17) = (   0.0000000   0.0588235   0.3333333), wk =   0.0015379
        k(   18) = (   0.0000000   0.0588235   0.3888889), wk =   0.0015379
        k(   19) = (   0.0000000   0.0588235   0.4444444), wk =   0.0015379
        k(   20) = (   0.0000000   0.0588235  -0.5000000), wk =   0.0007689
        k(   21) = (   0.0000000   0.1176471   0.0000000), wk =   0.0007689
        k(   22) = (   0.0000000   0.1176471   0.0555556), wk =   0.0015379
        k(   23) = (   0.0000000   0.1176471   0.1111111), wk =   0.0015379
        k(   24) = (   0.0000000   0.1176471   0.1666667), wk =   0.0015379
        k(   25) = (   0.0000000   0.1176471   0.2222222), wk =   0.0015379
        k(   26) = (   0.0000000   0.1176471   0.2777778), wk =   0.0015379
        k(   27) = (   0.0000000   0.1176471   0.3333333), wk =   0.0015379
        k(   28) = (   0.0000000   0.1176471   0.3888889), wk =   0.0015379
        k(   29) = (   0.0000000   0.1176471   0.4444444), wk =   0.0015379
        k(   30) = (   0.0000000   0.1176471  -0.5000000), wk =   0.0007689
        k(   31) = (   0.0000000   0.1764706   0.0000000), wk =   0.0007689
        k(   32) = (   0.0000000   0.1764706   0.0555556), wk =   0.0015379
        k(   33) = (   0.0000000   0.1764706   0.1111111), wk =   0.0015379
        k(   34) = (   0.0000000   0.1764706   0.1666667), wk =   0.0015379
        k(   35) = (   0.0000000   0.1764706   0.2222222), wk =   0.0015379
        k(   36) = (   0.0000000   0.1764706   0.2777778), wk =   0.0015379
        k(   37) = (   0.0000000   0.1764706   0.3333333), wk =   0.0015379
        k(   38) = (   0.0000000   0.1764706   0.3888889), wk =   0.0015379
        k(   39) = (   0.0000000   0.1764706   0.4444444), wk =   0.0015379
        k(   40) = (   0.0000000   0.1764706  -0.5000000), wk =   0.0007689
        k(   41) = (   0.0000000   0.2352941   0.0000000), wk =   0.0007689
        k(   42) = (   0.0000000   0.2352941   0.0555556), wk =   0.0015379
        k(   43) = (   0.0000000   0.2352941   0.1111111), wk =   0.0015379
        k(   44) = (   0.0000000   0.2352941   0.1666667), wk =   0.0015379
        k(   45) = (   0.0000000   0.2352941   0.2222222), wk =   0.0015379
        k(   46) = (   0.0000000   0.2352941   0.2777778), wk =   0.0015379
        k(   47) = (   0.0000000   0.2352941   0.3333333), wk =   0.0015379
        k(   48) = (   0.0000000   0.2352941   0.3888889), wk =   0.0015379
        k(   49) = (   0.0000000   0.2352941   0.4444444), wk =   0.0015379
        k(   50) = (   0.0000000   0.2352941  -0.5000000), wk =   0.0007689
        k(   51) = (   0.0000000   0.2941176   0.0000000), wk =   0.0007689
        k(   52) = (   0.0000000   0.2941176   0.0555556), wk =   0.0015379
        k(   53) = (   0.0000000   0.2941176   0.1111111), wk =   0.0015379
        k(   54) = (   0.0000000   0.2941176   0.1666667), wk =   0.0015379
        k(   55) = (   0.0000000   0.2941176   0.2222222), wk =   0.0015379
        k(   56) = (   0.0000000   0.2941176   0.2777778), wk =   0.0015379
        k(   57) = (   0.0000000   0.2941176   0.3333333), wk =   0.0015379
        k(   58) = (   0.0000000   0.2941176   0.3888889), wk =   0.0015379
        k(   59) = (   0.0000000   0.2941176   0.4444444), wk =   0.0015379
        k(   60) = (   0.0000000   0.2941176  -0.5000000), wk =   0.0007689
        k(   61) = (   0.0000000   0.3529412   0.0000000), wk =   0.0007689
        k(   62) = (   0.0000000   0.3529412   0.0555556), wk =   0.0015379
        k(   63) = (   0.0000000   0.3529412   0.1111111), wk =   0.0015379
        k(   64) = (   0.0000000   0.3529412   0.1666667), wk =   0.0015379
        k(   65) = (   0.0000000   0.3529412   0.2222222), wk =   0.0015379
        k(   66) = (   0.0000000   0.3529412   0.2777778), wk =   0.0015379
        k(   67) = (   0.0000000   0.3529412   0.3333333), wk =   0.0015379
        k(   68) = (   0.0000000   0.3529412   0.3888889), wk =   0.0015379
        k(   69) = (   0.0000000   0.3529412   0.4444444), wk =   0.0015379
        k(   70) = (   0.0000000   0.3529412  -0.5000000), wk =   0.0007689
        k(   71) = (   0.0000000   0.4117647   0.0000000), wk =   0.0007689
        k(   72) = (   0.0000000   0.4117647   0.0555556), wk =   0.0015379
        k(   73) = (   0.0000000   0.4117647   0.1111111), wk =   0.0015379
        k(   74) = (   0.0000000   0.4117647   0.1666667), wk =   0.0015379
        k(   75) = (   0.0000000   0.4117647   0.2222222), wk =   0.0015379
        k(   76) = (   0.0000000   0.4117647   0.2777778), wk =   0.0015379
        k(   77) = (   0.0000000   0.4117647   0.3333333), wk =   0.0015379
        k(   78) = (   0.0000000   0.4117647   0.3888889), wk =   0.0015379
        k(   79) = (   0.0000000   0.4117647   0.4444444), wk =   0.0015379
        k(   80) = (   0.0000000   0.4117647  -0.5000000), wk =   0.0007689
        k(   81) = (   0.0000000   0.4705882   0.0000000), wk =   0.0007689
        k(   82) = (   0.0000000   0.4705882   0.0555556), wk =   0.0015379
        k(   83) = (   0.0000000   0.4705882   0.1111111), wk =   0.0015379
        k(   84) = (   0.0000000   0.4705882   0.1666667), wk =   0.0015379
        k(   85) = (   0.0000000   0.4705882   0.2222222), wk =   0.0015379
        k(   86) = (   0.0000000   0.4705882   0.2777778), wk =   0.0015379
        k(   87) = (   0.0000000   0.4705882   0.3333333), wk =   0.0015379
        k(   88) = (   0.0000000   0.4705882   0.3888889), wk =   0.0015379
        k(   89) = (   0.0000000   0.4705882   0.4444444), wk =   0.0015379
        k(   90) = (   0.0000000   0.4705882  -0.5000000), wk =   0.0007689
        k(   91) = (   0.0588235   0.0588235   0.0000000), wk =   0.0007689
        k(   92) = (   0.0588235   0.0588235   0.0555556), wk =   0.0015379
        k(   93) = (   0.0588235   0.0588235   0.1111111), wk =   0.0015379
        k(   94) = (   0.0588235   0.0588235   0.1666667), wk =   0.0015379
        k(   95) = (   0.0588235   0.0588235   0.2222222), wk =   0.0015379
        k(   96) = (   0.0588235   0.0588235   0.2777778), wk =   0.0015379
        k(   97) = (   0.0588235   0.0588235   0.3333333), wk =   0.0015379
        k(   98) = (   0.0588235   0.0588235   0.3888889), wk =   0.0015379
        k(   99) = (   0.0588235   0.0588235   0.4444444), wk =   0.0015379
        k(  100) = (   0.0588235   0.0588235  -0.5000000), wk =   0.0007689
        k(  101) = (   0.0588235   0.1176471   0.0000000), wk =   0.0015379
        k(  102) = (   0.0588235   0.1176471   0.0555556), wk =   0.0030757
        k(  103) = (   0.0588235   0.1176471   0.1111111), wk =   0.0030757
        k(  104) = (   0.0588235   0.1176471   0.1666667), wk =   0.0030757
        k(  105) = (   0.0588235   0.1176471   0.2222222), wk =   0.0030757
        k(  106) = (   0.0588235   0.1176471   0.2777778), wk =   0.0030757
        k(  107) = (   0.0588235   0.1176471   0.3333333), wk =   0.0030757
        k(  108) = (   0.0588235   0.1176471   0.3888889), wk =   0.0030757
        k(  109) = (   0.0588235   0.1176471   0.4444444), wk =   0.0030757
        k(  110) = (   0.0588235   0.1176471  -0.5000000), wk =   0.0015379
        k(  111) = (   0.0588235   0.1764706   0.0000000), wk =   0.0015379
        k(  112) = (   0.0588235   0.1764706   0.0555556), wk =   0.0030757
        k(  113) = (   0.0588235   0.1764706   0.1111111), wk =   0.0030757
        k(  114) = (   0.0588235   0.1764706   0.1666667), wk =   0.0030757
        k(  115) = (   0.0588235   0.1764706   0.2222222), wk =   0.0030757
        k(  116) = (   0.0588235   0.1764706   0.2777778), wk =   0.0030757
        k(  117) = (   0.0588235   0.1764706   0.3333333), wk =   0.0030757
        k(  118) = (   0.0588235   0.1764706   0.3888889), wk =   0.0030757
        k(  119) = (   0.0588235   0.1764706   0.4444444), wk =   0.0030757
        k(  120) = (   0.0588235   0.1764706  -0.5000000), wk =   0.0015379
        k(  121) = (   0.0588235   0.2352941   0.0000000), wk =   0.0015379
        k(  122) = (   0.0588235   0.2352941   0.0555556), wk =   0.0030757
        k(  123) = (   0.0588235   0.2352941   0.1111111), wk =   0.0030757
        k(  124) = (   0.0588235   0.2352941   0.1666667), wk =   0.0030757
        k(  125) = (   0.0588235   0.2352941   0.2222222), wk =   0.0030757
        k(  126) = (   0.0588235   0.2352941   0.2777778), wk =   0.0030757
        k(  127) = (   0.0588235   0.2352941   0.3333333), wk =   0.0030757
        k(  128) = (   0.0588235   0.2352941   0.3888889), wk =   0.0030757
        k(  129) = (   0.0588235   0.2352941   0.4444444), wk =   0.0030757
        k(  130) = (   0.0588235   0.2352941  -0.5000000), wk =   0.0015379
        k(  131) = (   0.0588235   0.2941176   0.0000000), wk =   0.0015379
        k(  132) = (   0.0588235   0.2941176   0.0555556), wk =   0.0030757
        k(  133) = (   0.0588235   0.2941176   0.1111111), wk =   0.0030757
        k(  134) = (   0.0588235   0.2941176   0.1666667), wk =   0.0030757
        k(  135) = (   0.0588235   0.2941176   0.2222222), wk =   0.0030757
        k(  136) = (   0.0588235   0.2941176   0.2777778), wk =   0.0030757
        k(  137) = (   0.0588235   0.2941176   0.3333333), wk =   0.0030757
        k(  138) = (   0.0588235   0.2941176   0.3888889), wk =   0.0030757
        k(  139) = (   0.0588235   0.2941176   0.4444444), wk =   0.0030757
        k(  140) = (   0.0588235   0.2941176  -0.5000000), wk =   0.0015379
        k(  141) = (   0.0588235   0.3529412   0.0000000), wk =   0.0015379
        k(  142) = (   0.0588235   0.3529412   0.0555556), wk =   0.0030757
        k(  143) = (   0.0588235   0.3529412   0.1111111), wk =   0.0030757
        k(  144) = (   0.0588235   0.3529412   0.1666667), wk =   0.0030757
        k(  145) = (   0.0588235   0.3529412   0.2222222), wk =   0.0030757
        k(  146) = (   0.0588235   0.3529412   0.2777778), wk =   0.0030757
        k(  147) = (   0.0588235   0.3529412   0.3333333), wk =   0.0030757
        k(  148) = (   0.0588235   0.3529412   0.3888889), wk =   0.0030757
        k(  149) = (   0.0588235   0.3529412   0.4444444), wk =   0.0030757
        k(  150) = (   0.0588235   0.3529412  -0.5000000), wk =   0.0015379
        k(  151) = (   0.0588235   0.4117647   0.0000000), wk =   0.0015379
        k(  152) = (   0.0588235   0.4117647   0.0555556), wk =   0.0030757
        k(  153) = (   0.0588235   0.4117647   0.1111111), wk =   0.0030757
        k(  154) = (   0.0588235   0.4117647   0.1666667), wk =   0.0030757
        k(  155) = (   0.0588235   0.4117647   0.2222222), wk =   0.0030757
        k(  156) = (   0.0588235   0.4117647   0.2777778), wk =   0.0030757
        k(  157) = (   0.0588235   0.4117647   0.3333333), wk =   0.0030757
        k(  158) = (   0.0588235   0.4117647   0.3888889), wk =   0.0030757
        k(  159) = (   0.0588235   0.4117647   0.4444444), wk =   0.0030757
        k(  160) = (   0.0588235   0.4117647  -0.5000000), wk =   0.0015379
        k(  161) = (   0.0588235   0.4705882   0.0000000), wk =   0.0015379
        k(  162) = (   0.0588235   0.4705882   0.0555556), wk =   0.0030757
        k(  163) = (   0.0588235   0.4705882   0.1111111), wk =   0.0030757
        k(  164) = (   0.0588235   0.4705882   0.1666667), wk =   0.0030757
        k(  165) = (   0.0588235   0.4705882   0.2222222), wk =   0.0030757
        k(  166) = (   0.0588235   0.4705882   0.2777778), wk =   0.0030757
        k(  167) = (   0.0588235   0.4705882   0.3333333), wk =   0.0030757
        k(  168) = (   0.0588235   0.4705882   0.3888889), wk =   0.0030757
        k(  169) = (   0.0588235   0.4705882   0.4444444), wk =   0.0030757
        k(  170) = (   0.0588235   0.4705882  -0.5000000), wk =   0.0015379
        k(  171) = (   0.1176471   0.1176471   0.0000000), wk =   0.0007689
        k(  172) = (   0.1176471   0.1176471   0.0555556), wk =   0.0015379
        k(  173) = (   0.1176471   0.1176471   0.1111111), wk =   0.0015379
        k(  174) = (   0.1176471   0.1176471   0.1666667), wk =   0.0015379
        k(  175) = (   0.1176471   0.1176471   0.2222222), wk =   0.0015379
        k(  176) = (   0.1176471   0.1176471   0.2777778), wk =   0.0015379
        k(  177) = (   0.1176471   0.1176471   0.3333333), wk =   0.0015379
        k(  178) = (   0.1176471   0.1176471   0.3888889), wk =   0.0015379
        k(  179) = (   0.1176471   0.1176471   0.4444444), wk =   0.0015379
        k(  180) = (   0.1176471   0.1176471  -0.5000000), wk =   0.0007689
        k(  181) = (   0.1176471   0.1764706   0.0000000), wk =   0.0015379
        k(  182) = (   0.1176471   0.1764706   0.0555556), wk =   0.0030757
        k(  183) = (   0.1176471   0.1764706   0.1111111), wk =   0.0030757
        k(  184) = (   0.1176471   0.1764706   0.1666667), wk =   0.0030757
        k(  185) = (   0.1176471   0.1764706   0.2222222), wk =   0.0030757
        k(  186) = (   0.1176471   0.1764706   0.2777778), wk =   0.0030757
        k(  187) = (   0.1176471   0.1764706   0.3333333), wk =   0.0030757
        k(  188) = (   0.1176471   0.1764706   0.3888889), wk =   0.0030757
        k(  189) = (   0.1176471   0.1764706   0.4444444), wk =   0.0030757
        k(  190) = (   0.1176471   0.1764706  -0.5000000), wk =   0.0015379
        k(  191) = (   0.1176471   0.2352941   0.0000000), wk =   0.0015379
        k(  192) = (   0.1176471   0.2352941   0.0555556), wk =   0.0030757
        k(  193) = (   0.1176471   0.2352941   0.1111111), wk =   0.0030757
        k(  194) = (   0.1176471   0.2352941   0.1666667), wk =   0.0030757
        k(  195) = (   0.1176471   0.2352941   0.2222222), wk =   0.0030757
        k(  196) = (   0.1176471   0.2352941   0.2777778), wk =   0.0030757
        k(  197) = (   0.1176471   0.2352941   0.3333333), wk =   0.0030757
        k(  198) = (   0.1176471   0.2352941   0.3888889), wk =   0.0030757
        k(  199) = (   0.1176471   0.2352941   0.4444444), wk =   0.0030757
        k(  200) = (   0.1176471   0.2352941  -0.5000000), wk =   0.0015379
        k(  201) = (   0.1176471   0.2941176   0.0000000), wk =   0.0015379
        k(  202) = (   0.1176471   0.2941176   0.0555556), wk =   0.0030757
        k(  203) = (   0.1176471   0.2941176   0.1111111), wk =   0.0030757
        k(  204) = (   0.1176471   0.2941176   0.1666667), wk =   0.0030757
        k(  205) = (   0.1176471   0.2941176   0.2222222), wk =   0.0030757
        k(  206) = (   0.1176471   0.2941176   0.2777778), wk =   0.0030757
        k(  207) = (   0.1176471   0.2941176   0.3333333), wk =   0.0030757
        k(  208) = (   0.1176471   0.2941176   0.3888889), wk =   0.0030757
        k(  209) = (   0.1176471   0.2941176   0.4444444), wk =   0.0030757
        k(  210) = (   0.1176471   0.2941176  -0.5000000), wk =   0.0015379
        k(  211) = (   0.1176471   0.3529412   0.0000000), wk =   0.0015379
        k(  212) = (   0.1176471   0.3529412   0.0555556), wk =   0.0030757
        k(  213) = (   0.1176471   0.3529412   0.1111111), wk =   0.0030757
        k(  214) = (   0.1176471   0.3529412   0.1666667), wk =   0.0030757
        k(  215) = (   0.1176471   0.3529412   0.2222222), wk =   0.0030757
        k(  216) = (   0.1176471   0.3529412   0.2777778), wk =   0.0030757
        k(  217) = (   0.1176471   0.3529412   0.3333333), wk =   0.0030757
        k(  218) = (   0.1176471   0.3529412   0.3888889), wk =   0.0030757
        k(  219) = (   0.1176471   0.3529412   0.4444444), wk =   0.0030757
        k(  220) = (   0.1176471   0.3529412  -0.5000000), wk =   0.0015379
        k(  221) = (   0.1176471   0.4117647   0.0000000), wk =   0.0015379
        k(  222) = (   0.1176471   0.4117647   0.0555556), wk =   0.0030757
        k(  223) = (   0.1176471   0.4117647   0.1111111), wk =   0.0030757
        k(  224) = (   0.1176471   0.4117647   0.1666667), wk =   0.0030757
        k(  225) = (   0.1176471   0.4117647   0.2222222), wk =   0.0030757
        k(  226) = (   0.1176471   0.4117647   0.2777778), wk =   0.0030757
        k(  227) = (   0.1176471   0.4117647   0.3333333), wk =   0.0030757
        k(  228) = (   0.1176471   0.4117647   0.3888889), wk =   0.0030757
        k(  229) = (   0.1176471   0.4117647   0.4444444), wk =   0.0030757
        k(  230) = (   0.1176471   0.4117647  -0.5000000), wk =   0.0015379
        k(  231) = (   0.1176471   0.4705882   0.0000000), wk =   0.0015379
        k(  232) = (   0.1176471   0.4705882   0.0555556), wk =   0.0030757
        k(  233) = (   0.1176471   0.4705882   0.1111111), wk =   0.0030757
        k(  234) = (   0.1176471   0.4705882   0.1666667), wk =   0.0030757
        k(  235) = (   0.1176471   0.4705882   0.2222222), wk =   0.0030757
        k(  236) = (   0.1176471   0.4705882   0.2777778), wk =   0.0030757
        k(  237) = (   0.1176471   0.4705882   0.3333333), wk =   0.0030757
        k(  238) = (   0.1176471   0.4705882   0.3888889), wk =   0.0030757
        k(  239) = (   0.1176471   0.4705882   0.4444444), wk =   0.0030757
        k(  240) = (   0.1176471   0.4705882  -0.5000000), wk =   0.0015379
        k(  241) = (   0.1764706   0.1764706   0.0000000), wk =   0.0007689
        k(  242) = (   0.1764706   0.1764706   0.0555556), wk =   0.0015379
        k(  243) = (   0.1764706   0.1764706   0.1111111), wk =   0.0015379
        k(  244) = (   0.1764706   0.1764706   0.1666667), wk =   0.0015379
        k(  245) = (   0.1764706   0.1764706   0.2222222), wk =   0.0015379
        k(  246) = (   0.1764706   0.1764706   0.2777778), wk =   0.0015379
        k(  247) = (   0.1764706   0.1764706   0.3333333), wk =   0.0015379
        k(  248) = (   0.1764706   0.1764706   0.3888889), wk =   0.0015379
        k(  249) = (   0.1764706   0.1764706   0.4444444), wk =   0.0015379
        k(  250) = (   0.1764706   0.1764706  -0.5000000), wk =   0.0007689
        k(  251) = (   0.1764706   0.2352941   0.0000000), wk =   0.0015379
        k(  252) = (   0.1764706   0.2352941   0.0555556), wk =   0.0030757
        k(  253) = (   0.1764706   0.2352941   0.1111111), wk =   0.0030757
        k(  254) = (   0.1764706   0.2352941   0.1666667), wk =   0.0030757
        k(  255) = (   0.1764706   0.2352941   0.2222222), wk =   0.0030757
        k(  256) = (   0.1764706   0.2352941   0.2777778), wk =   0.0030757
        k(  257) = (   0.1764706   0.2352941   0.3333333), wk =   0.0030757
        k(  258) = (   0.1764706   0.2352941   0.3888889), wk =   0.0030757
        k(  259) = (   0.1764706   0.2352941   0.4444444), wk =   0.0030757
        k(  260) = (   0.1764706   0.2352941  -0.5000000), wk =   0.0015379
        k(  261) = (   0.1764706   0.2941176   0.0000000), wk =   0.0015379
        k(  262) = (   0.1764706   0.2941176   0.0555556), wk =   0.0030757
        k(  263) = (   0.1764706   0.2941176   0.1111111), wk =   0.0030757
        k(  264) = (   0.1764706   0.2941176   0.1666667), wk =   0.0030757
        k(  265) = (   0.1764706   0.2941176   0.2222222), wk =   0.0030757
        k(  266) = (   0.1764706   0.2941176   0.2777778), wk =   0.0030757
        k(  267) = (   0.1764706   0.2941176   0.3333333), wk =   0.0030757
        k(  268) = (   0.1764706   0.2941176   0.3888889), wk =   0.0030757
        k(  269) = (   0.1764706   0.2941176   0.4444444), wk =   0.0030757
        k(  270) = (   0.1764706   0.2941176  -0.5000000), wk =   0.0015379
        k(  271) = (   0.1764706   0.3529412   0.0000000), wk =   0.0015379
        k(  272) = (   0.1764706   0.3529412   0.0555556), wk =   0.0030757
        k(  273) = (   0.1764706   0.3529412   0.1111111), wk =   0.0030757
        k(  274) = (   0.1764706   0.3529412   0.1666667), wk =   0.0030757
        k(  275) = (   0.1764706   0.3529412   0.2222222), wk =   0.0030757
        k(  276) = (   0.1764706   0.3529412   0.2777778), wk =   0.0030757
        k(  277) = (   0.1764706   0.3529412   0.3333333), wk =   0.0030757
        k(  278) = (   0.1764706   0.3529412   0.3888889), wk =   0.0030757
        k(  279) = (   0.1764706   0.3529412   0.4444444), wk =   0.0030757
        k(  280) = (   0.1764706   0.3529412  -0.5000000), wk =   0.0015379
        k(  281) = (   0.1764706   0.4117647   0.0000000), wk =   0.0015379
        k(  282) = (   0.1764706   0.4117647   0.0555556), wk =   0.0030757
        k(  283) = (   0.1764706   0.4117647   0.1111111), wk =   0.0030757
        k(  284) = (   0.1764706   0.4117647   0.1666667), wk =   0.0030757
        k(  285) = (   0.1764706   0.4117647   0.2222222), wk =   0.0030757
        k(  286) = (   0.1764706   0.4117647   0.2777778), wk =   0.0030757
        k(  287) = (   0.1764706   0.4117647   0.3333333), wk =   0.0030757
        k(  288) = (   0.1764706   0.4117647   0.3888889), wk =   0.0030757
        k(  289) = (   0.1764706   0.4117647   0.4444444), wk =   0.0030757
        k(  290) = (   0.1764706   0.4117647  -0.5000000), wk =   0.0015379
        k(  291) = (   0.1764706   0.4705882   0.0000000), wk =   0.0015379
        k(  292) = (   0.1764706   0.4705882   0.0555556), wk =   0.0030757
        k(  293) = (   0.1764706   0.4705882   0.1111111), wk =   0.0030757
        k(  294) = (   0.1764706   0.4705882   0.1666667), wk =   0.0030757
        k(  295) = (   0.1764706   0.4705882   0.2222222), wk =   0.0030757
        k(  296) = (   0.1764706   0.4705882   0.2777778), wk =   0.0030757
        k(  297) = (   0.1764706   0.4705882   0.3333333), wk =   0.0030757
        k(  298) = (   0.1764706   0.4705882   0.3888889), wk =   0.0030757
        k(  299) = (   0.1764706   0.4705882   0.4444444), wk =   0.0030757
        k(  300) = (   0.1764706   0.4705882  -0.5000000), wk =   0.0015379
        k(  301) = (   0.2352941   0.2352941   0.0000000), wk =   0.0007689
        k(  302) = (   0.2352941   0.2352941   0.0555556), wk =   0.0015379
        k(  303) = (   0.2352941   0.2352941   0.1111111), wk =   0.0015379
        k(  304) = (   0.2352941   0.2352941   0.1666667), wk =   0.0015379
        k(  305) = (   0.2352941   0.2352941   0.2222222), wk =   0.0015379
        k(  306) = (   0.2352941   0.2352941   0.2777778), wk =   0.0015379
        k(  307) = (   0.2352941   0.2352941   0.3333333), wk =   0.0015379
        k(  308) = (   0.2352941   0.2352941   0.3888889), wk =   0.0015379
        k(  309) = (   0.2352941   0.2352941   0.4444444), wk =   0.0015379
        k(  310) = (   0.2352941   0.2352941  -0.5000000), wk =   0.0007689
        k(  311) = (   0.2352941   0.2941176   0.0000000), wk =   0.0015379
        k(  312) = (   0.2352941   0.2941176   0.0555556), wk =   0.0030757
        k(  313) = (   0.2352941   0.2941176   0.1111111), wk =   0.0030757
        k(  314) = (   0.2352941   0.2941176   0.1666667), wk =   0.0030757
        k(  315) = (   0.2352941   0.2941176   0.2222222), wk =   0.0030757
        k(  316) = (   0.2352941   0.2941176   0.2777778), wk =   0.0030757
        k(  317) = (   0.2352941   0.2941176   0.3333333), wk =   0.0030757
        k(  318) = (   0.2352941   0.2941176   0.3888889), wk =   0.0030757
        k(  319) = (   0.2352941   0.2941176   0.4444444), wk =   0.0030757
        k(  320) = (   0.2352941   0.2941176  -0.5000000), wk =   0.0015379
        k(  321) = (   0.2352941   0.3529412   0.0000000), wk =   0.0015379
        k(  322) = (   0.2352941   0.3529412   0.0555556), wk =   0.0030757
        k(  323) = (   0.2352941   0.3529412   0.1111111), wk =   0.0030757
        k(  324) = (   0.2352941   0.3529412   0.1666667), wk =   0.0030757
        k(  325) = (   0.2352941   0.3529412   0.2222222), wk =   0.0030757
        k(  326) = (   0.2352941   0.3529412   0.2777778), wk =   0.0030757
        k(  327) = (   0.2352941   0.3529412   0.3333333), wk =   0.0030757
        k(  328) = (   0.2352941   0.3529412   0.3888889), wk =   0.0030757
        k(  329) = (   0.2352941   0.3529412   0.4444444), wk =   0.0030757
        k(  330) = (   0.2352941   0.3529412  -0.5000000), wk =   0.0015379
        k(  331) = (   0.2352941   0.4117647   0.0000000), wk =   0.0015379
        k(  332) = (   0.2352941   0.4117647   0.0555556), wk =   0.0030757
        k(  333) = (   0.2352941   0.4117647   0.1111111), wk =   0.0030757
        k(  334) = (   0.2352941   0.4117647   0.1666667), wk =   0.0030757
        k(  335) = (   0.2352941   0.4117647   0.2222222), wk =   0.0030757
        k(  336) = (   0.2352941   0.4117647   0.2777778), wk =   0.0030757
        k(  337) = (   0.2352941   0.4117647   0.3333333), wk =   0.0030757
        k(  338) = (   0.2352941   0.4117647   0.3888889), wk =   0.0030757
        k(  339) = (   0.2352941   0.4117647   0.4444444), wk =   0.0030757
        k(  340) = (   0.2352941   0.4117647  -0.5000000), wk =   0.0015379
        k(  341) = (   0.2352941   0.4705882   0.0000000), wk =   0.0015379
        k(  342) = (   0.2352941   0.4705882   0.0555556), wk =   0.0030757
        k(  343) = (   0.2352941   0.4705882   0.1111111), wk =   0.0030757
        k(  344) = (   0.2352941   0.4705882   0.1666667), wk =   0.0030757
        k(  345) = (   0.2352941   0.4705882   0.2222222), wk =   0.0030757
        k(  346) = (   0.2352941   0.4705882   0.2777778), wk =   0.0030757
        k(  347) = (   0.2352941   0.4705882   0.3333333), wk =   0.0030757
        k(  348) = (   0.2352941   0.4705882   0.3888889), wk =   0.0030757
        k(  349) = (   0.2352941   0.4705882   0.4444444), wk =   0.0030757
        k(  350) = (   0.2352941   0.4705882  -0.5000000), wk =   0.0015379
        k(  351) = (   0.2941176   0.2941176   0.0000000), wk =   0.0007689
        k(  352) = (   0.2941176   0.2941176   0.0555556), wk =   0.0015379
        k(  353) = (   0.2941176   0.2941176   0.1111111), wk =   0.0015379
        k(  354) = (   0.2941176   0.2941176   0.1666667), wk =   0.0015379
        k(  355) = (   0.2941176   0.2941176   0.2222222), wk =   0.0015379
        k(  356) = (   0.2941176   0.2941176   0.2777778), wk =   0.0015379
        k(  357) = (   0.2941176   0.2941176   0.3333333), wk =   0.0015379
        k(  358) = (   0.2941176   0.2941176   0.3888889), wk =   0.0015379
        k(  359) = (   0.2941176   0.2941176   0.4444444), wk =   0.0015379
        k(  360) = (   0.2941176   0.2941176  -0.5000000), wk =   0.0007689
        k(  361) = (   0.2941176   0.3529412   0.0000000), wk =   0.0015379
        k(  362) = (   0.2941176   0.3529412   0.0555556), wk =   0.0030757
        k(  363) = (   0.2941176   0.3529412   0.1111111), wk =   0.0030757
        k(  364) = (   0.2941176   0.3529412   0.1666667), wk =   0.0030757
        k(  365) = (   0.2941176   0.3529412   0.2222222), wk =   0.0030757
        k(  366) = (   0.2941176   0.3529412   0.2777778), wk =   0.0030757
        k(  367) = (   0.2941176   0.3529412   0.3333333), wk =   0.0030757
        k(  368) = (   0.2941176   0.3529412   0.3888889), wk =   0.0030757
        k(  369) = (   0.2941176   0.3529412   0.4444444), wk =   0.0030757
        k(  370) = (   0.2941176   0.3529412  -0.5000000), wk =   0.0015379
        k(  371) = (   0.2941176   0.4117647   0.0000000), wk =   0.0015379
        k(  372) = (   0.2941176   0.4117647   0.0555556), wk =   0.0030757
        k(  373) = (   0.2941176   0.4117647   0.1111111), wk =   0.0030757
        k(  374) = (   0.2941176   0.4117647   0.1666667), wk =   0.0030757
        k(  375) = (   0.2941176   0.4117647   0.2222222), wk =   0.0030757
        k(  376) = (   0.2941176   0.4117647   0.2777778), wk =   0.0030757
        k(  377) = (   0.2941176   0.4117647   0.3333333), wk =   0.0030757
        k(  378) = (   0.2941176   0.4117647   0.3888889), wk =   0.0030757
        k(  379) = (   0.2941176   0.4117647   0.4444444), wk =   0.0030757
        k(  380) = (   0.2941176   0.4117647  -0.5000000), wk =   0.0015379
        k(  381) = (   0.2941176   0.4705882   0.0000000), wk =   0.0015379
        k(  382) = (   0.2941176   0.4705882   0.0555556), wk =   0.0030757
        k(  383) = (   0.2941176   0.4705882   0.1111111), wk =   0.0030757
        k(  384) = (   0.2941176   0.4705882   0.1666667), wk =   0.0030757
        k(  385) = (   0.2941176   0.4705882   0.2222222), wk =   0.0030757
        k(  386) = (   0.2941176   0.4705882   0.2777778), wk =   0.0030757
        k(  387) = (   0.2941176   0.4705882   0.3333333), wk =   0.0030757
        k(  388) = (   0.2941176   0.4705882   0.3888889), wk =   0.0030757
        k(  389) = (   0.2941176   0.4705882   0.4444444), wk =   0.0030757
        k(  390) = (   0.2941176   0.4705882  -0.5000000), wk =   0.0015379
        k(  391) = (   0.3529412   0.3529412   0.0000000), wk =   0.0007689
        k(  392) = (   0.3529412   0.3529412   0.0555556), wk =   0.0015379
        k(  393) = (   0.3529412   0.3529412   0.1111111), wk =   0.0015379
        k(  394) = (   0.3529412   0.3529412   0.1666667), wk =   0.0015379
        k(  395) = (   0.3529412   0.3529412   0.2222222), wk =   0.0015379
        k(  396) = (   0.3529412   0.3529412   0.2777778), wk =   0.0015379
        k(  397) = (   0.3529412   0.3529412   0.3333333), wk =   0.0015379
        k(  398) = (   0.3529412   0.3529412   0.3888889), wk =   0.0015379
        k(  399) = (   0.3529412   0.3529412   0.4444444), wk =   0.0015379
        k(  400) = (   0.3529412   0.3529412  -0.5000000), wk =   0.0007689
        k(  401) = (   0.3529412   0.4117647   0.0000000), wk =   0.0015379
        k(  402) = (   0.3529412   0.4117647   0.0555556), wk =   0.0030757
        k(  403) = (   0.3529412   0.4117647   0.1111111), wk =   0.0030757
        k(  404) = (   0.3529412   0.4117647   0.1666667), wk =   0.0030757
        k(  405) = (   0.3529412   0.4117647   0.2222222), wk =   0.0030757
        k(  406) = (   0.3529412   0.4117647   0.2777778), wk =   0.0030757
        k(  407) = (   0.3529412   0.4117647   0.3333333), wk =   0.0030757
        k(  408) = (   0.3529412   0.4117647   0.3888889), wk =   0.0030757
        k(  409) = (   0.3529412   0.4117647   0.4444444), wk =   0.0030757
        k(  410) = (   0.3529412   0.4117647  -0.5000000), wk =   0.0015379
        k(  411) = (   0.3529412   0.4705882   0.0000000), wk =   0.0015379
        k(  412) = (   0.3529412   0.4705882   0.0555556), wk =   0.0030757
        k(  413) = (   0.3529412   0.4705882   0.1111111), wk =   0.0030757
        k(  414) = (   0.3529412   0.4705882   0.1666667), wk =   0.0030757
        k(  415) = (   0.3529412   0.4705882   0.2222222), wk =   0.0030757
        k(  416) = (   0.3529412   0.4705882   0.2777778), wk =   0.0030757
        k(  417) = (   0.3529412   0.4705882   0.3333333), wk =   0.0030757
        k(  418) = (   0.3529412   0.4705882   0.3888889), wk =   0.0030757
        k(  419) = (   0.3529412   0.4705882   0.4444444), wk =   0.0030757
        k(  420) = (   0.3529412   0.4705882  -0.5000000), wk =   0.0015379
        k(  421) = (   0.4117647   0.4117647   0.0000000), wk =   0.0007689
        k(  422) = (   0.4117647   0.4117647   0.0555556), wk =   0.0015379
        k(  423) = (   0.4117647   0.4117647   0.1111111), wk =   0.0015379
        k(  424) = (   0.4117647   0.4117647   0.1666667), wk =   0.0015379
        k(  425) = (   0.4117647   0.4117647   0.2222222), wk =   0.0015379
        k(  426) = (   0.4117647   0.4117647   0.2777778), wk =   0.0015379
        k(  427) = (   0.4117647   0.4117647   0.3333333), wk =   0.0015379
        k(  428) = (   0.4117647   0.4117647   0.3888889), wk =   0.0015379
        k(  429) = (   0.4117647   0.4117647   0.4444444), wk =   0.0015379
        k(  430) = (   0.4117647   0.4117647  -0.5000000), wk =   0.0007689
[...]
     0.0000   0.0000   0.0000   0.0000   0.0000   0.0000   0.0000   0.0000

          k = 0.4706 0.4706 0.0000 (  5318 PWs)   bands (ev):

   -82.3680 -65.6355 -42.9405 -42.9405 -42.9339 -32.9520 -32.9177 -32.7089
   -32.7083 -32.6306 -32.5979 -31.8857 -31.8776 -31.8776  13.7216  13.7957
    15.3649  15.4124  15.5376  15.5887  15.9728  16.1371  17.4251  17.4514
    17.9825  18.1327  18.1623  18.4927  18.5015  18.7081  18.8221  19.8275
    19.8435  20.0135  21.4107  21.6404  22.1844  22.3489  30.6191  31.0383

     occupation numbers 
     1.0000   1.0000   1.0000   1.0000   1.0000   1.0000   1.0000   1.0000
     1.0000   1.0000   1.0000   1.0000   1.0000   1.0000   1.0000   1.0000
     1.0000   1.0000   1.0000   1.0000   1.0000   1.0000   1.0000   1.0000
     1.0000   1.0000   1.0000   1.0000   1.0000   1.0000   1.0000   0.9618
     0.9147   0.2404   0.0000   0.0000   0.0000   0.0000   0.0000   0.0000

          k = 0.4706 0.4706 0.0589 (  5304 PWs)   bands (ev):

   -82.3680 -65.6355 -42.9405 -42.9405 -42.9340 -32.9529 -32.9176 -32.7097
   -32.7091 -32.6306 -32.5979 -31.8848 -31.8769 -31.8769  13.7291  13.8034
    15.1854  15.2027  15.5879  15.6139  16.2012  16.3185  17.4084  17.4248
    17.9879  18.1528  18.1758  18.4215  18.5030  18.5557  19.0184  19.8614
    19.8639  20.0883  21.4043  21.6309  22.1704  22.3393  30.1464  30.6074

     occupation numbers 
     1.0000   1.0000   1.0000   1.0000   1.0000   1.0000   1.0000   1.0000
     1.0000   1.0000   1.0000   1.0000   1.0000   1.0000   1.0000   1.0000
     1.0000   1.0000   1.0000   1.0000   1.0000   1.0000   1.0000   1.0000
     1.0000   1.0000   1.0000   1.0000   1.0000   1.0000   1.0000   0.8534
     0.8444   0.0776   0.0000   0.0000   0.0000   0.0000   0.0000   0.0000

          k = 0.4706 0.4706 0.1178 (  5305 PWs)   bands (ev):

   -82.3680 -65.6354 -42.9405 -42.9405 -42.9342 -32.9555 -32.9173 -32.7121
   -32.7114 -32.6305 -32.5978 -31.8824 -31.8751 -31.8749  13.7483  13.8231
    14.8492  14.9041  15.6751  15.6928  16.5919  16.6815  17.3534  17.3719
    17.9806  18.2107  18.2152  18.2320  18.4336  18.5335  19.2661  19.9393
    19.9554  20.2650  21.3829  21.6019  22.1253  22.3069  29.2106  29.5442

     occupation numbers 
     1.0000   1.0000   1.0000   1.0000   1.0000   1.0000   1.0000   1.0000
     1.0000   1.0000   1.0000   1.0000   1.0000   1.0000   1.0000   1.0000
     1.0000   1.0000   1.0000   1.0000   1.0000   1.0000   1.0000   1.0000
     1.0000   1.0000   1.0000   1.0000   1.0000   1.0000   1.0000   0.5244
     0.4552   0.0013   0.0000   0.0000   0.0000   0.0000   0.0000   0.0000

          k = 0.4706 0.4706 0.1767 (  5308 PWs)   bands (ev):

   -82.3680 -65.6354 -42.9405 -42.9405 -42.9344 -32.9594 -32.9169 -32.7156
   -32.7150 -32.6304 -32.5977 -31.8787 -31.8723 -31.8719  13.7708  13.8466
    14.5261  14.6049  15.8179  15.8323  16.9327  17.1003  17.2553  17.3922
    17.8938  18.0482  18.2775  18.3019  18.3890  18.5830  19.5062  20.0623
    20.0903  20.4845  21.3395  21.5516  22.0404  22.2402  28.2298  28.4865

     occupation numbers 
     1.0000   1.0000   1.0000   1.0000   1.0000   1.0000   1.0000   1.0000
     1.0000   1.0000   1.0000   1.0000   1.0000   1.0000   1.0000   1.0000
     1.0000   1.0000   1.0000   1.0000   1.0000   1.0000   1.0000   1.0000
     1.0000   1.0000   1.0000   1.0000   1.0000   1.0000   1.0047   0.1196
     0.0748   0.0000   0.0000   0.0000   0.0000   0.0000   0.0000   0.0000

          k = 0.4706 0.4706 0.2357 (  5282 PWs)   bands (ev):

   -82.3680 -65.6354 -42.9406 -42.9406 -42.9347 -32.9641 -32.9164 -32.7200
   -32.7194 -32.6303 -32.5976 -31.8742 -31.8689 -31.8682  13.7873  13.8653
    14.2403  14.3350  16.0239  16.0363  17.0176  17.1483  17.5406  17.6573
    17.7348  17.8815  18.3585  18.4221  18.4411  18.6474  19.7273  20.2077
    20.2428  20.7103  21.2648  21.4763  21.9017  22.1200  27.3303  27.5252

     occupation numbers 
     1.0000   1.0000   1.0000   1.0000   1.0000   1.0000   1.0000   1.0000
     1.0000   1.0000   1.0000   1.0000   1.0000   1.0000   1.0000   1.0000
     1.0000   1.0000   1.0000   1.0000   1.0000   1.0000   1.0000   1.0000
     1.0000   1.0000   1.0000   1.0000   1.0000   1.0000   1.0833   0.0060
     0.0024   0.0000   0.0000   0.0000   0.0000   0.0000   0.0000   0.0000

          k = 0.4706 0.4706 0.2946 (  5277 PWs)   bands (ev):

   -82.3679 -65.6354 -42.9407 -42.9407 -42.9350 -32.9691 -32.9159 -32.7245
   -32.7240 -32.6301 -32.5976 -31.8693 -31.8653 -31.8644  13.7886  13.8750
    14.0034  14.1074  16.2863  16.2975  16.9635  17.0464  17.5747  17.7246
    17.9714  18.0472  18.4581  18.5506  18.5710  18.7234  19.9205  20.3492
    20.3878  20.9179  21.1516  21.3707  21.6960  21.9233  26.5794  26.7097

     occupation numbers 
     1.0000   1.0000   1.0000   1.0000   1.0000   1.0000   1.0000   1.0000
     1.0000   1.0000   1.0000   1.0000   1.0000   1.0000   1.0000   1.0000
     1.0000   1.0000   1.0000   1.0000   1.0000   1.0000   1.0000   1.0000
     1.0000   1.0000   1.0000   1.0000   1.0000   1.0000   0.6078   0.0001
     0.0000   0.0000   0.0000   0.0000   0.0000   0.0000   0.0000   0.0000

          k = 0.4706 0.4706 0.3535 (  5277 PWs)   bands (ev):

   -82.3679 -65.6353 -42.9407 -42.9407 -42.9353 -32.9738 -32.9154 -32.7288
   -32.7283 -32.6300 -32.5975 -31.8647 -31.8620 -31.8610  13.7468  13.8411
    13.8762  13.9360  16.5801  16.5902  16.8950  16.9602  17.4402  17.5903
    18.3267  18.4121  18.6101  18.6979  18.7505  18.8282  20.0774  20.4572
    20.4928  21.0057  21.0818  21.2297  21.4345  21.6420  26.0198  26.0757

     occupation numbers 
     1.0000   1.0000   1.0000   1.0000   1.0000   1.0000   1.0000   1.0000
     1.0000   1.0000   1.0000   1.0000   1.0000   1.0000   1.0000   1.0000
     1.0000   1.0000   1.0000   1.0000   1.0000   1.0000   1.0000   1.0000
     1.0000   1.0000   1.0000   1.0000   1.0000   1.0000   0.0935   0.0000
     0.0000   0.0000   0.0000   0.0000   0.0000   0.0000   0.0000   0.0000

          k = 0.4706 0.4706 0.4124 (  5277 PWs)   bands (ev):

   -82.3679 -65.6353 -42.9408 -42.9408 -42.9355 -32.9776 -32.9150 -32.7322
   -32.7317 -32.6299 -32.5974 -31.8609 -31.8594 -31.8583  13.6402  13.7522
    13.8544  13.8726  16.8139  16.8471  16.8855  16.9182  17.3400  17.4886
    18.4876  18.6706  18.8536  18.8827  18.9477  19.0531  20.1883  20.4787
    20.4904  20.8753  21.0562  21.0748  21.2948  21.3189  25.6385  25.6592

     occupation numbers 
     1.0000   1.0000   1.0000   1.0000   1.0000   1.0000   1.0000   1.0000
     1.0000   1.0000   1.0000   1.0000   1.0000   1.0000   1.0000   1.0000
     1.0000   1.0000   1.0000   1.0000   1.0000   1.0000   1.0000   1.0000
     1.0000   1.0000   1.0000   1.0000   1.0000   1.0000   0.0097   0.0000
     0.0000   0.0000   0.0000   0.0000   0.0000   0.0000   0.0000   0.0000

          k = 0.4706 0.4706 0.4713 (  5276 PWs)   bands (ev):

   -82.3679 -65.6353 -42.9408 -42.9408 -42.9357 -32.9800 -32.9148 -32.7345
   -32.7340 -32.6299 -32.5974 -31.8582 -31.8576 -31.8568  13.5607  13.6818
    13.8343  13.8685  16.7917  16.8436  17.0783  17.0876  17.2781  17.4254
    18.5505  18.7645  19.0910  19.0937  19.1885  19.2949  20.2149  20.3391
    20.3745  20.8092  20.8723  20.9539  21.0801  21.3496  25.3893  25.4691

     occupation numbers 
     1.0000   1.0000   1.0000   1.0000   1.0000   1.0000   1.0000   1.0000
     1.0000   1.0000   1.0000   1.0000   1.0000   1.0000   1.0000   1.0000
     1.0000   1.0000   1.0000   1.0000   1.0000   1.0000   1.0000   1.0000
     1.0000   1.0000   1.0000   1.0000   1.0000   1.0000   0.0050   0.0001
     0.0000   0.0000   0.0000   0.0000   0.0000   0.0000   0.0000   0.0000

          k = 0.4706 0.4706-0.5302 (  5270 PWs)   bands (ev):

   -82.3679 -65.6353 -42.9408 -42.9408 -42.9357 -32.9808 -32.9147 -32.7353
   -32.7348 -32.6298 -32.5973 -31.8570 -31.8570 -31.8565  13.5334  13.6564
    13.8297  13.8668  16.7796  16.8309  17.1545  17.1636  17.2565  17.4039
    18.5695  18.7864  19.2093  19.2464  19.2776  19.3870  20.1396  20.2345
    20.3444  20.7648  20.7820  20.9295  21.0167  21.3746  25.3092  25.4114

     occupation numbers 
     1.0000   1.0000   1.0000   1.0000   1.0000   1.0000   1.0000   1.0000
     1.0000   1.0000   1.0000   1.0000   1.0000   1.0000   1.0000   1.0000
     1.0000   1.0000   1.0000   1.0000   1.0000   1.0000   1.0000   1.0000
     1.0000   1.0000   1.0000   1.0000   1.0000   1.0002   0.0290   0.0030
     0.0001   0.0000   0.0000   0.0000   0.0000   0.0000   0.0000   0.0000

     the Fermi energy is    19.9686 ev

!    total energy              =   -1091.16949168 Ry
     estimated scf accuracy    <          5.3E-10 Ry
     smearing contrib. (-TS)   =      -0.00048981 Ry
     internal energy E=F+TS    =   -1091.16900188 Ry

     The total energy is F=E-TS. E is the sum of the following terms:
     one-electron contribution =    -369.97902128 Ry
     hartree contribution      =     234.88597435 Ry
     xc contribution           =    -183.06445517 Ry
     ewald contribution        =    -698.93159656 Ry
     one-center paw contrib.   =     -74.07990321 Ry
      -> PAW hartree energy AE =     203.70761328 Ry
      -> PAW hartree energy PS =    -202.83735426 Ry
      -> PAW xc energy AE      =    -108.76898369 Ry
      -> PAW xc energy PS      =      33.81882146 Ry
      -> total E_H with PAW    =     235.75623338 Ry
      -> total E_XC with PAW   =    -258.01461740 Ry

     total magnetization       =     4.80 Bohr mag/cell
     absolute magnetization    =     5.06 Bohr mag/cell

     convergence has been achieved in  16 iterations

     negative rho (up, down):  1.763E-01 1.690E-01

     Forces acting on atoms (cartesian axes, Ry/au):

     atom    1 type  1   force =     0.00000000    0.00000000    0.00000000
     atom    2 type  2   force =     0.00000000    0.00000000    0.00000000
     atom    3 type  3   force =     0.00000000    0.00000000    0.00000000
     atom    4 type  3   force =     0.00000000    0.00000000    0.00000000
     The non-local contrib.  to forces
     atom    1 type  1   force =     0.00000000    0.00000000    0.00000000
     atom    2 type  2   force =     0.00000000    0.00000000    0.00000000
     atom    3 type  3   force =     0.00000000    0.00000000    0.00000000
     atom    4 type  3   force =     0.00000000    0.00000000    0.00000000
     The ionic contribution  to forces
     atom    1 type  1   force =    -0.00000000   -0.00000000   -0.00000000
     atom    2 type  2   force =     0.00000000    0.00000000   -0.00000000
     atom    3 type  3   force =    -0.00000000   -0.00000000    0.00000000
     atom    4 type  3   force =    -0.00000000   -0.00000000    0.00000000
     The local contribution  to forces
     atom    1 type  1   force =    -0.00000000   -0.00000000    0.00000000
     atom    2 type  2   force =     0.00000000    0.00000000    0.00000000
     atom    3 type  3   force =    -0.00000000    0.00000000    0.00000000
     atom    4 type  3   force =     0.00000000   -0.00000000    0.00000000
     The core correction contribution to forces
     atom    1 type  1   force =     0.00000000   -0.00000000    0.00000000
     atom    2 type  2   force =     0.00000000    0.00000000    0.00000000
     atom    3 type  3   force =    -0.00000000    0.00000000   -0.00000000
     atom    4 type  3   force =     0.00000000   -0.00000000   -0.00000000
     The Hubbard contrib.    to forces
     atom    1 type  1   force =     0.00000000    0.00000000    0.00000000
     atom    2 type  2   force =     0.00000000    0.00000000    0.00000000
     atom    3 type  3   force =     0.00000000    0.00000000    0.00000000
     atom    4 type  3   force =     0.00000000    0.00000000    0.00000000
     The SCF correction term to forces
     atom    1 type  1   force =     0.00000000   -0.00000000   -0.00000000
     atom    2 type  2   force =    -0.00000000    0.00000000    0.00000000
     atom    3 type  3   force =    -0.00000000   -0.00000000   -0.00000000
     atom    4 type  3   force =    -0.00000000   -0.00000000    0.00000000

     Total force =     0.000000     Total SCF correction =     0.000000


     Computing stress (Cartesian axis) and pressure


     negative rho (up, down):  1.763E-01 1.690E-01
          total   stress  (Ry/bohr**3)                   (kbar)     P=      -64.38
  -0.00047395   0.00000000   0.00000000          -69.72        0.00        0.00
   0.00000000  -0.00047395   0.00000000            0.00      -69.72        0.00
   0.00000000   0.00000000  -0.00036497            0.00        0.00      -53.69

     kinetic stress (kbar)  59702.48      0.00      0.00
                                0.00  59702.48      0.00
                                0.00      0.00  59811.00

     local   stress (kbar)  26879.16     -0.00      0.00
                               -0.00  26879.16      0.00
                                0.00      0.00  26328.60

     nonloc. stress (kbar)  -7422.12      0.00      0.00
                                0.00  -7422.12      0.00
                                0.00      0.00  -7349.95

     hartree stress (kbar)  31486.32      0.00     -0.00
                                0.00  31486.32     -0.00
                               -0.00     -0.00  31436.10

     exc-cor stress (kbar)  18203.56      0.00      0.00
                                0.00  18203.56      0.00
                                0.00      0.00  18204.43

     corecor stress (kbar) -35132.35      0.00     -0.00
                                0.00 -35132.35     -0.00
                               -0.00     -0.00 -35132.85

     ewald   stress (kbar) -93786.77      0.00     -0.00
                                0.00 -93786.77     -0.00
                               -0.00     -0.00 -93351.02

     hubbard stress (kbar)      0.00      0.00      0.00
                                0.00      0.00      0.00
                                0.00      0.00      0.00

     DFT-D   stress (kbar)      0.00      0.00      0.00
                                0.00      0.00      0.00
                                0.00      0.00      0.00

     XDM     stress (kbar)      0.00      0.00      0.00
                                0.00      0.00      0.00
                                0.00      0.00      0.00

     dft-nl  stress (kbar)      0.00      0.00      0.00
                                0.00      0.00      0.00
                                0.00      0.00      0.00

     TS-vdW  stress (kbar)      0.00      0.00      0.00
                                0.00      0.00      0.00
                                0.00      0.00      0.00


                                0.00      0.00      0.00
                                0.00      0.00      0.00


                                0.00      0.00      0.00


     Writing output data file ./fenipt/out/aiida.save/
 
     init_run     :     10.53s CPU     11.27s WALL (       1 calls)
     electrons    :    337.31s CPU    342.95s WALL (       1 calls)
     forces       :      2.16s CPU      2.16s WALL (       1 calls)
     stress       :     23.46s CPU     17.20s WALL (       1 calls)

     Called by init_run:
     wfcinit      :      9.01s CPU      9.78s WALL (       1 calls)
                                        9.78s GPU  (       1 calls)
     wfcinit:atom :      0.26s CPU      0.30s WALL (     900 calls)
                                        0.19s GPU  (     900 calls)
     wfcinit:wfcr :      6.05s CPU      6.21s WALL (     900 calls)
                                        6.21s GPU  (     900 calls)
     potinit      :      0.52s CPU      0.35s WALL (       1 calls)
     hinit0       :      0.52s CPU      0.45s WALL (       1 calls)

     Called by electrons:
     c_bands      :    301.72s CPU    308.78s WALL (      16 calls)
     sum_band     :     29.50s CPU     29.46s WALL (      16 calls)
     v_of_rho     :      1.99s CPU      1.69s WALL (      17 calls)
     v_h          :      0.12s CPU      0.07s WALL (      17 calls)
     v_xc         :      2.09s CPU      1.79s WALL (      19 calls)
     newd         :      0.61s CPU      0.97s WALL (      17 calls)
                                        0.97s GPU  (      17 calls)
     PAW_pot      :      3.30s CPU      2.20s WALL (      17 calls)
     mix_rho      :      0.44s CPU      0.29s WALL (      16 calls)

     Called by c_bands:
     init_us_2_gp :      5.59s CPU      6.71s WALL (   31500 calls)
     cegterg      :    289.64s CPU    293.58s WALL (   14400 calls)

     Called by sum_band:
     sum_band:wei :      0.19s CPU      0.19s WALL (      16 calls)
                                        0.19s GPU  (      16 calls)
     sum_band:loo :     28.45s CPU     28.52s WALL (      16 calls)
                                       28.52s GPU  (      16 calls)
     sum_band:buf :      4.81s CPU      4.89s WALL (   14400 calls)
                                        4.84s GPU  (   14400 calls)
     sum_band:ini :      3.06s CPU      5.83s WALL (   14400 calls)
                                        5.79s GPU  (   14400 calls)
     sum_band:cal :      0.13s CPU      4.75s WALL (   14400 calls)
                                        4.54s GPU  (   14400 calls)
     sum_band:bec :      1.98s CPU      2.05s WALL (   14400 calls)
                                        2.00s GPU  (   14400 calls)
     addusdens    :      0.53s CPU      0.53s WALL (      16 calls)
                                        0.53s GPU  (      16 calls)
     addusd:skk   :      0.00s CPU      0.33s WALL (      48 calls)
                                        0.00s GPU  (      48 calls)

     Called by *egterg:
     cdiaghg      :    142.85s CPU    143.11s WALL (   47643 calls)
                                      142.66s GPU  (   47643 calls)
     cegterg:over :     33.36s CPU     33.45s WALL (   33243 calls)
     cegterg:upda :      5.38s CPU      5.38s WALL (   33243 calls)
     cegterg:last :      7.10s CPU      7.10s WALL (   24961 calls)
     h_psi        :     70.92s CPU     72.82s WALL (   48543 calls)
                                       72.38s GPU  (   48543 calls)
     s_psi        :      1.38s CPU     10.63s WALL (   48543 calls)
                                       10.39s GPU  (   48543 calls)
     g_psi        :      0.06s CPU      0.59s WALL (   33243 calls)
                                        0.49s GPU  (   33243 calls)

     Called by h_psi:
     h_psi:calbec :      0.54s CPU     11.98s WALL (   48543 calls)
                                       11.83s GPU  (   48543 calls)
     vloc_psi     :     48.31s CPU     50.08s WALL (   48543 calls)
                                       49.55s GPU  (   48543 calls)
     add_vuspsi   :      0.69s CPU     10.02s WALL (   48543 calls)
                                        9.87s GPU  (   48543 calls)

     General routines
     calbec       :      0.63s CPU      0.64s WALL (   67443 calls)
     fft          :      2.02s CPU      1.03s WALL (     463 calls)
                                        0.02s GPU  (      42 calls)
     ffts         :      0.06s CPU      0.03s WALL (      66 calls)
     fftw         :      1.56s CPU     59.24s WALL (  268676 calls)
                                       54.02s GPU  (  268676 calls)
     interpolate  :      0.23s CPU      0.12s WALL (      34 calls)
 
     Parallel routines

     PAW routines
     PAW_pot      :      3.30s CPU      2.20s WALL (      17 calls)
     PAW_symme    :      0.01s CPU      0.00s WALL (      33 calls)
 
     PWSCF        :    374.74s CPU    375.23s WALL

 
   This run was terminated on:   5:41:31  28Feb2025            

=------------------------------------------------------------------------------=
   JOB DONE.
=------------------------------------------------------------------------------=
Warning: ieee_invalid is signaling
Warning: ieee_divide_by_zero is signaling
Warning: ieee_underflow is signaling
Warning: ieee_inexact is signaling
FORTRAN STOP
